 Entering Gaussian System, Link 0=g16
 Initial command:
 /nvme/h/buildsets/eb_nepheli/software/Gaussian/16.C.01-AVX2/g16/l1.exe "/onyx/data/simea/nikolas/postDoc/Active-Learning-Package/Ag-mainy/init_data/Ag10/Gau-111694.inp" -scrdir="/onyx/data/simea/nikolas/postDoc/Active-Learning-Package/Ag-mainy/init_data/Ag10/"
 Entering Link 1 = /nvme/h/buildsets/eb_nepheli/software/Gaussian/16.C.01-AVX2/g16/l1.exe PID=    111695.
  
 Copyright (c) 1988-2019, Gaussian, Inc.  All Rights Reserved.
  
 This is part of the Gaussian(R) 16 program.  It is based on
 the Gaussian(R) 09 system (copyright 2009, Gaussian, Inc.),
 the Gaussian(R) 03 system (copyright 2003, Gaussian, Inc.),
 the Gaussian(R) 98 system (copyright 1998, Gaussian, Inc.),
 the Gaussian(R) 94 system (copyright 1995, Gaussian, Inc.),
 the Gaussian 92(TM) system (copyright 1992, Gaussian, Inc.),
 the Gaussian 90(TM) system (copyright 1990, Gaussian, Inc.),
 the Gaussian 88(TM) system (copyright 1988, Gaussian, Inc.),
 the Gaussian 86(TM) system (copyright 1986, Carnegie Mellon
 University), and the Gaussian 82(TM) system (copyright 1983,
 Carnegie Mellon University). Gaussian is a federally registered
 trademark of Gaussian, Inc.
  
 This software contains proprietary and confidential information,
 including trade secrets, belonging to Gaussian, Inc.
  
 This software is provided under written license and may be
 used, copied, transmitted, or stored only in accord with that
 written license.
  
 The following legend is applicable only to US Government
 contracts under FAR:
  
                    RESTRICTED RIGHTS LEGEND
  
 Use, reproduction and disclosure by the US Government is
 subject to restrictions as set forth in subparagraphs (a)
 and (c) of the Commercial Computer Software - Restricted
 Rights clause in FAR 52.227-19.
  
 Gaussian, Inc.
 340 Quinnipiac St., Bldg. 40, Wallingford CT 06492
  
  
 ---------------------------------------------------------------
 Warning -- This program may not be used in any manner that
 competes with the business of Gaussian, Inc. or will provide
 assistance to any competitor of Gaussian, Inc.  The licensee
 of this program is prohibited from giving any competitor of
 Gaussian, Inc. access to this program.  By using this program,
 the user acknowledges that Gaussian, Inc. is engaged in the
 business of creating and licensing software in the field of
 computational chemistry and represents and warrants to the
 licensee that it is not a competitor of Gaussian, Inc. and that
 it will not use this program in any manner prohibited above.
 ---------------------------------------------------------------
  

 Cite this work as:
 Gaussian 16, Revision C.01,
 M. J. Frisch, G. W. Trucks, H. B. Schlegel, G. E. Scuseria, 
 M. A. Robb, J. R. Cheeseman, G. Scalmani, V. Barone, 
 G. A. Petersson, H. Nakatsuji, X. Li, M. Caricato, A. V. Marenich, 
 J. Bloino, B. G. Janesko, R. Gomperts, B. Mennucci, H. P. Hratchian, 
 J. V. Ortiz, A. F. Izmaylov, J. L. Sonnenberg, D. Williams-Young, 
 F. Ding, F. Lipparini, F. Egidi, J. Goings, B. Peng, A. Petrone, 
 T. Henderson, D. Ranasinghe, V. G. Zakrzewski, J. Gao, N. Rega, 
 G. Zheng, W. Liang, M. Hada, M. Ehara, K. Toyota, R. Fukuda, 
 J. Hasegawa, M. Ishida, T. Nakajima, Y. Honda, O. Kitao, H. Nakai, 
 T. Vreven, K. Throssell, J. A. Montgomery, Jr., J. E. Peralta, 
 F. Ogliaro, M. J. Bearpark, J. J. Heyd, E. N. Brothers, K. N. Kudin, 
 V. N. Staroverov, T. A. Keith, R. Kobayashi, J. Normand, 
 K. Raghavachari, A. P. Rendell, J. C. Burant, S. S. Iyengar, 
 J. Tomasi, M. Cossi, J. M. Millam, M. Klene, C. Adamo, R. Cammi, 
 J. W. Ochterski, R. L. Martin, K. Morokuma, O. Farkas, 
 J. B. Foresman, and D. J. Fox, Gaussian, Inc., Wallingford CT, 2019.
 
 ******************************************
 Gaussian 16:  ES64L-G16RevC.01  3-Jul-2019
                26-Feb-2025 
 ******************************************
 %nprocshared=4
 Will use up to    4 processors via shared memory.
 %mem=16000MB
 -------------------------------------------
 #p wb97xd/def2SVP scf(xqc) scfcyc=999 force
 -------------------------------------------
 1/10=7,30=1,38=1/1,3;
 2/12=2,17=6,18=5,40=1/2;
 3/5=43,7=101,11=2,25=1,30=1,71=1,74=-58/1,2,3;
 4//1;
 5/5=2,7=999,8=3,13=1,38=5/2,8;
 6/7=2,8=2,9=2,10=2,28=1/1;
 7/29=1/1,2,3,16;
 1/10=7,30=1/3;
 99//99;
 Leave Link    1 at Wed Feb 26 03:24:21 2025, MaxMem=  2097152000 cpu:               0.2 elap:               0.1
 (Enter /nvme/h/buildsets/eb_nepheli/software/Gaussian/16.C.01-AVX2/g16/l101.exe)
 -------------
 Template file
 -------------
 Symbolic Z-matrix:
 Charge =  0 Multiplicity = 1
 Ag                   -1.79099  -0.75324  -0.90274 
 Ag                    3.15391   0.43382  -0.99054 
 Ag                   -1.932     2.05118  -1.1641 
 Ag                    0.49552   0.86385  -1.40474 
 Ag                    1.12356  -1.79698  -0.84384 
 Ag                   -0.67355   1.24642   1.26566 
 Ag                   -0.73336  -1.68589   1.49947 
 Ag                   -3.19007  -2.58522   0.56519 
 Ag                    1.91649   2.45683   0.52163 
 Ag                    1.63048  -0.23077   1.45401 
 
 ITRead=  0  0  0  0  0  0  0  0  0  0
 MicOpt= -1 -1 -1 -1 -1 -1 -1 -1 -1 -1
 NAtoms=     10 NQM=       10 NQMF=       0 NMMI=      0 NMMIF=      0
                NMic=       0 NMicF=      0.
                    Isotopes and Nuclear Properties:
 (Nuclear quadrupole moments (NQMom) in fm**2, nuclear magnetic moments (NMagM)
  in nuclear magnetons)

  Atom         1           2           3           4           5           6           7           8           9          10
 IAtWgt=         107         107         107         107         107         107         107         107         107         107
 AtmWgt= 106.9050900 106.9050900 106.9050900 106.9050900 106.9050900 106.9050900 106.9050900 106.9050900 106.9050900 106.9050900
 NucSpn=           1           1           1           1           1           1           1           1           1           1
 AtZEff=  -0.0000000  -0.0000000  -0.0000000  -0.0000000  -0.0000000  -0.0000000  -0.0000000  -0.0000000  -0.0000000  -0.0000000
 NQMom=    0.0000000   0.0000000   0.0000000   0.0000000   0.0000000   0.0000000   0.0000000   0.0000000   0.0000000   0.0000000
 NMagM=   -0.1135700  -0.1135700  -0.1135700  -0.1135700  -0.1135700  -0.1135700  -0.1135700  -0.1135700  -0.1135700  -0.1135700
 AtZNuc=  47.0000000  47.0000000  47.0000000  47.0000000  47.0000000  47.0000000  47.0000000  47.0000000  47.0000000  47.0000000
 Leave Link  101 at Wed Feb 26 03:24:21 2025, MaxMem=  2097152000 cpu:               0.1 elap:               0.1
 (Enter /nvme/h/buildsets/eb_nepheli/software/Gaussian/16.C.01-AVX2/g16/l103.exe)

 GradGradGradGradGradGradGradGradGradGradGradGradGradGradGradGradGradGrad
 Berny optimization.
 Initialization pass.
 Trust Radius=3.00D-01 FncErr=1.00D-07 GrdErr=1.00D-07 EigMax=2.50D+02 EigMin=1.00D-04
 Number of steps in this run=      2 maximum allowed number of steps=      2.
 GradGradGradGradGradGradGradGradGradGradGradGradGradGradGradGradGradGrad

 Leave Link  103 at Wed Feb 26 03:24:21 2025, MaxMem=  2097152000 cpu:               0.0 elap:               0.0
 (Enter /nvme/h/buildsets/eb_nepheli/software/Gaussian/16.C.01-AVX2/g16/l202.exe)
                          Input orientation:                          
 ---------------------------------------------------------------------
 Center     Atomic      Atomic             Coordinates (Angstroms)
 Number     Number       Type             X           Y           Z
 ---------------------------------------------------------------------
      1         47           0       -1.790993   -0.753243   -0.902743
      2         47           0        3.153914    0.433819   -0.990539
      3         47           0       -1.931999    2.051185   -1.164096
      4         47           0        0.495519    0.863853   -1.404737
      5         47           0        1.123563   -1.796984   -0.843839
      6         47           0       -0.673552    1.246419    1.265659
      7         47           0       -0.733355   -1.685890    1.499467
      8         47           0       -3.190067   -2.585216    0.565185
      9         47           0        1.916489    2.456827    0.521632
     10         47           0        1.630481   -0.230768    1.454008
 ---------------------------------------------------------------------
                    Distance matrix (angstroms):
                    1          2          3          4          5
     1  Ag   0.000000
     2  Ag   5.086151   0.000000
     3  Ag   2.820107   5.339710   0.000000
     4  Ag   2.845195   2.724620   2.713026   0.000000
     5  Ag   3.096369   3.019988   4.924168   2.790896   0.000000
     6  Ag   3.154249   4.516663   2.852200   2.940085   4.116055
     7  Ag   2.785506   5.079779   4.743105   4.055332   2.991917
     8  Ag   2.732827   7.195898   5.105816   5.418507   4.605873
     9  Ag   5.106742   2.812551   4.221029   2.875347   4.537417
    10  Ag   4.187331   2.956067   4.975243   3.264775   2.826676
                    6          7          8          9         10
     6  Ag   0.000000
     7  Ag   2.942223   0.000000
     8  Ag   4.637342   2.777968   0.000000
     9  Ag   2.954146   5.013974   7.176420   0.000000
    10  Ag   2.743378   2.776179   5.437933   2.859072   0.000000
 Stoichiometry    Ag10
 Framework group  C1[X(Ag10)]
 Deg. of freedom    24
 Full point group                 C1      NOp   1
 Largest Abelian subgroup         C1      NOp   1
 Largest concise Abelian subgroup C1      NOp   1
                         Standard orientation:                         
 ---------------------------------------------------------------------
 Center     Atomic      Atomic             Coordinates (Angstroms)
 Number     Number       Type             X           Y           Z
 ---------------------------------------------------------------------
      1         47           0       -1.820568    0.589174   -0.963527
      2         47           0        2.970976   -1.115699   -1.022281
      3         47           0       -0.409024    2.982578   -0.481692
      4         47           0        1.011940    0.772952   -1.159133
      5         47           0        0.057496   -1.843238   -1.342676
      6         47           0       -0.015540    1.052761    1.581322
      7         47           0       -1.661482   -1.327697    1.051254
      8         47           0       -4.115654   -0.487243    0.057381
      9         47           0        2.876101    0.805332    1.029811
     10         47           0        1.105755   -1.428921    1.249542
 ---------------------------------------------------------------------
 Rotational constants (GHZ):           0.1483595           0.0873617           0.0752629
 Leave Link  202 at Wed Feb 26 03:24:21 2025, MaxMem=  2097152000 cpu:               0.0 elap:               0.0
 (Enter /nvme/h/buildsets/eb_nepheli/software/Gaussian/16.C.01-AVX2/g16/l301.exe)
 Standard basis: def2SVP (5D, 7F)
 Ernie: Thresh=  0.10000D-02 Tol=  0.10000D-05 Strict=F.
 There are   360 symmetry adapted cartesian basis functions of A   symmetry.
 There are   310 symmetry adapted basis functions of A   symmetry.
   310 basis functions,   650 primitive gaussians,   360 cartesian basis functions
    95 alpha electrons       95 beta electrons
       nuclear repulsion energy      2408.7119994930 Hartrees.
 IExCor= 4639 DFT=T Ex+Corr=wB97XD ExCW=0 ScaHFX=  1.000000
 ScaDFX=  1.000000  1.000000  1.000000  1.000000 ScalE2=  1.000000  1.000000
 IRadAn=      5 IRanWt=     -1 IRanGd=            0 ICorTp=0 IEmpDi=121
 HFx  wShort=  0.000000 wLong=  0.200000 cFull=  0.222036 cShort=  0.000000 cLong=  0.777964
 DFx  wShort=  0.000000 wLong=  0.200000 cFull=  0.000000 cShort=  0.000000 cLong=  1.000000
 NAtoms=   10 NActive=   10 NUniq=   10 SFac= 1.00D+00 NAtFMM=   60 NAOKFM=F Big=F
 Integral buffers will be    131072 words long.
 Raffenetti 2 integral format.
 Two-electron integral symmetry is turned on.
 R6Disp:  Grimme-D2 Dispersion energy=       -0.0289593652 Hartrees.
 Nuclear repulsion after empirical dispersion term =     2408.6830401278 Hartrees.
 Leave Link  301 at Wed Feb 26 03:24:22 2025, MaxMem=  2097152000 cpu:               0.1 elap:               0.0
 (Enter /nvme/h/buildsets/eb_nepheli/software/Gaussian/16.C.01-AVX2/g16/l302.exe)
 NPDir=0 NMtPBC=     1 NCelOv=     1 NCel=       1 NClECP=     1 NCelD=      1
         NCelK=      1 NCelE2=     1 NClLst=     1 CellRange=     0.0.
 One-electron integrals computed using PRISM.
 One-electron integral symmetry used in STVInt
   1 Symmetry operations used in ECPInt.
 ECPInt:  NShTT=    6105 NPrTT=   18295 LenC2=    5923 LenP2D=   15119.
 LDataN:  DoStor=T MaxTD1= 7 Len=  274
 NBasis=   310 RedAO= T EigKep=  1.71D-04  NBF=   310
 NBsUse=   310 1.00D-06 EigRej= -1.00D+00 NBFU=   310
 Precomputing XC quadrature grid using
 IXCGrd= 4 IRadAn=           5 IRanWt=          -1 IRanGd=           0 AccXCQ= 0.00D+00.
 Defaulting to unpruned grid for atomic number  47.
 Defaulting to unpruned grid for atomic number  47.
 Defaulting to unpruned grid for atomic number  47.
 Defaulting to unpruned grid for atomic number  47.
 Generated NRdTot=       0 NPtTot=           0 NUsed=           0 NTot=          32
 NSgBfM=   359   358   358   358   359 MxSgAt=    10 MxSgA2=    10.
 Leave Link  302 at Wed Feb 26 03:24:24 2025, MaxMem=  2097152000 cpu:               7.0 elap:               1.8
 (Enter /nvme/h/buildsets/eb_nepheli/software/Gaussian/16.C.01-AVX2/g16/l303.exe)
 DipDrv:  MaxL=1.
 Leave Link  303 at Wed Feb 26 03:24:24 2025, MaxMem=  2097152000 cpu:               0.1 elap:               0.1
 (Enter /nvme/h/buildsets/eb_nepheli/software/Gaussian/16.C.01-AVX2/g16/l401.exe)
 ExpMin= 3.75D-02 ExpMax= 9.09D+00 ExpMxC= 9.09D+00 IAcc=3 IRadAn=         5 AccDes= 0.00D+00
 Harris functional with IExCor= 4639 and IRadAn=       5 diagonalized for initial guess.
 HarFok:  IExCor= 4639 AccDes= 0.00D+00 IRadAn=         5 IDoV= 1 UseB2=F ITyADJ=14
 ICtDFT=  3500011 ScaDFX=  1.000000  1.000000  1.000000  1.000000
 Defaulting to unpruned grid for atomic number  47.
 FoFCou: FMM=F IPFlag=           0 FMFlag=      100000 FMFlg1=           0
         NFxFlg=           0 DoJE=T BraDBF=F KetDBF=T FulRan=T
         wScrn=  0.000000 ICntrl=       500 IOpCl=  0 I1Cent=   200000004 NGrid=           0
         NMat0=    1 NMatS0=      1 NMatT0=    0 NMatD0=    1 NMtDS0=    0 NMtDT0=    0
 Petite list used in FoFCou.
 Harris En= -1430.99946505385    
 JPrj=0 DoOrth=F DoCkMO=F.
 Leave Link  401 at Wed Feb 26 03:24:26 2025, MaxMem=  2097152000 cpu:               7.0 elap:               1.8
 (Enter /nvme/h/buildsets/eb_nepheli/software/Gaussian/16.C.01-AVX2/g16/l502.exe)
 Integral symmetry usage will be decided dynamically.
 Closed shell SCF:
 Using DIIS extrapolation, IDIIS=  1040.
 NGot=  2097152000 LenX=  2096887314 LenY=  2096757273
 Requested convergence on RMS density matrix=1.00D-08 within 128 cycles.
 Requested convergence on MAX density matrix=1.00D-06.
 Requested convergence on             energy=1.00D-06.
 No special actions if energy rises.
 Fock matrices will be formed incrementally for  20 cycles.

 Cycle   1  Pass 1  IDiag  1:
 FoFJK:  IHMeth= 1 ICntrl=       0 DoSepK=T KAlg= 0 I1Cent=           0 FoldK=F
 IRaf=         1 NMat=       1 IRICut=       1 DoRegI=T DoRafI=F ISym2E= 0 IDoP0=0 IntGTp=1.
 FoFCou: FMM=F IPFlag=           0 FMFlag=      100000 FMFlg1=           0
         NFxFlg=           0 DoJE=T BraDBF=F KetDBF=F FulRan=T
         wScrn=  0.000000 ICntrl=       500 IOpCl=  0 I1Cent=           0 NGrid=           0
         NMat0=    1 NMatS0=      1 NMatT0=    0 NMatD0=    1 NMtDS0=    0 NMtDT0=    0
 Symmetry not used in FoFCou.
 Defaulting to unpruned grid for atomic number  47.
 Defaulting to unpruned grid for atomic number  47.
 Defaulting to unpruned grid for atomic number  47.
 Defaulting to unpruned grid for atomic number  47.
 E= -1455.25506079089    
 DIIS: error= 1.52D-01 at cycle   1 NSaved=   1.
 NSaved= 1 IEnMin= 1 EnMin= -1455.25506079089     IErMin= 1 ErrMin= 1.52D-01
 ErrMax= 1.52D-01  0.00D+00 EMaxC= 1.00D-01 BMatC= 1.71D+01 BMatP= 1.71D+01
 IDIUse=3 WtCom= 0.00D+00 WtEn= 1.00D+00
 Coeff-Com:  0.100D+01
 Coeff-En:   0.100D+01
 Coeff:      0.100D+01
 Gap=    -0.052 Goal=   None    Shift=    0.000
 GapD=   -0.052 DampG=0.250 DampE=0.125 DampFc=0.1250 IDamp=-1.
 Damping current iteration by 1.25D-01
 RMSDP=4.35D-02 MaxDP=2.29D+00              OVMax= 8.13D-01

 Cycle   2  Pass 1  IDiag  1:
 RMSU=  5.21D-03    CP:  9.66D-01
 E= -1458.73619137022     Delta-E=       -3.481130579333 Rises=F Damp=T
 DIIS: error= 1.14D-01 at cycle   2 NSaved=   2.
 NSaved= 2 IEnMin= 2 EnMin= -1458.73619137022     IErMin= 2 ErrMin= 1.14D-01
 ErrMax= 1.14D-01  0.00D+00 EMaxC= 1.00D-01 BMatC= 9.42D+00 BMatP= 1.71D+01
 IDIUse=3 WtCom= 0.00D+00 WtEn= 1.00D+00
 Coeff-Com: -0.280D+01 0.380D+01
 Coeff-En:   0.000D+00 0.100D+01
 Coeff:      0.000D+00 0.100D+01
 Gap=     0.092 Goal=   None    Shift=    0.000
 RMSDP=3.44D-02 MaxDP=1.44D+00 DE=-3.48D+00 OVMax= 1.13D-01

 Cycle   3  Pass 1  IDiag  1:
 RMSU=  2.14D-02    CP:  6.61D-01  3.00D+00
 E= -1464.42843454659     Delta-E=       -5.692243176367 Rises=F Damp=F
 DIIS: error= 7.71D-02 at cycle   3 NSaved=   3.
 NSaved= 3 IEnMin= 3 EnMin= -1464.42843454659     IErMin= 3 ErrMin= 7.71D-02
 ErrMax= 7.71D-02  0.00D+00 EMaxC= 1.00D-01 BMatC= 5.91D+00 BMatP= 9.42D+00
 IDIUse=3 WtCom= 2.29D-01 WtEn= 7.71D-01
 EnCoef did   100 forward-backward iterations
 Coeff-Com: -0.275D+01 0.374D+01 0.111D-01
 Coeff-En:   0.275D+00 0.858D-02 0.716D+00
 Coeff:     -0.416D+00 0.862D+00 0.555D+00
 Gap=     0.196 Goal=   None    Shift=    0.000
 RMSDP=2.88D-02 MaxDP=2.60D+00 DE=-5.69D+00 OVMax= 4.57D-01

 Cycle   4  Pass 1  IDiag  1:
 RMSU=  1.96D-02    CP:  4.90D-01  2.39D+00  2.64D-01
 E= -1469.99863838978     Delta-E=       -5.570203843198 Rises=F Damp=F
 DIIS: error= 2.01D-02 at cycle   4 NSaved=   4.
 NSaved= 4 IEnMin= 4 EnMin= -1469.99863838978     IErMin= 4 ErrMin= 2.01D-02
 ErrMax= 2.01D-02  0.00D+00 EMaxC= 1.00D-01 BMatC= 4.50D-01 BMatP= 5.91D+00
 IDIUse=3 WtCom= 7.99D-01 WtEn= 2.01D-01
 Coeff-Com: -0.158D+01 0.214D+01 0.686D-02 0.436D+00
 Coeff-En:   0.000D+00 0.000D+00 0.000D+00 0.100D+01
 Coeff:     -0.126D+01 0.171D+01 0.548D-02 0.550D+00
 Gap=     0.221 Goal=   None    Shift=    0.000
 RMSDP=5.15D-03 MaxDP=2.51D-01 DE=-5.57D+00 OVMax= 1.78D-01

 Cycle   5  Pass 1  IDiag  1:
 RMSU=  4.26D-03    CP:  4.76D-01  2.91D+00  2.61D-01  9.59D-01
 E= -1469.97924603277     Delta-E=        0.019392357016 Rises=F Damp=F
 DIIS: error= 1.81D-02 at cycle   5 NSaved=   5.
 NSaved= 5 IEnMin= 4 EnMin= -1469.99863838978     IErMin= 5 ErrMin= 1.81D-02
 ErrMax= 1.81D-02  0.00D+00 EMaxC= 1.00D-01 BMatC= 3.46D-01 BMatP= 4.50D-01
 IDIUse=3 WtCom= 8.19D-01 WtEn= 1.81D-01
 Coeff-Com: -0.605D+00 0.835D+00-0.107D+00 0.286D+00 0.592D+00
 Coeff-En:   0.000D+00 0.000D+00 0.000D+00 0.521D+00 0.479D+00
 Coeff:     -0.496D+00 0.684D+00-0.880D-01 0.328D+00 0.572D+00
 Gap=     0.160 Goal=   None    Shift=    0.000
 RMSDP=3.72D-03 MaxDP=1.94D-01 DE= 1.94D-02 OVMax= 9.53D-02

 Cycle   6  Pass 1  IDiag  1:
 RMSU=  2.27D-03    CP:  4.68D-01  2.39D+00  2.54D-01  1.00D+00  8.16D-01
 E= -1470.26887752809     Delta-E=       -0.289631495325 Rises=F Damp=F
 DIIS: error= 6.15D-03 at cycle   6 NSaved=   6.
 NSaved= 6 IEnMin= 6 EnMin= -1470.26887752809     IErMin= 6 ErrMin= 6.15D-03
 ErrMax= 6.15D-03  0.00D+00 EMaxC= 1.00D-01 BMatC= 3.19D-02 BMatP= 3.46D-01
 IDIUse=3 WtCom= 9.38D-01 WtEn= 6.15D-02
 Coeff-Com: -0.301D-01 0.464D-01-0.301D-01-0.259D-01-0.252D+00 0.129D+01
 Coeff-En:   0.000D+00 0.000D+00 0.000D+00 0.000D+00 0.000D+00 0.100D+01
 Coeff:     -0.283D-01 0.435D-01-0.283D-01-0.244D-01-0.236D+00 0.127D+01
 Gap=     0.169 Goal=   None    Shift=    0.000
 RMSDP=1.82D-03 MaxDP=6.21D-02 DE=-2.90D-01 OVMax= 3.97D-02

 Cycle   7  Pass 1  IDiag  1:
 RMSU=  6.84D-04    CP:  4.64D-01  2.23D+00  2.44D-01  1.00D+00  8.05D-01
                    CP:  1.63D+00
 E= -1470.29932320948     Delta-E=       -0.030445681389 Rises=F Damp=F
 DIIS: error= 9.20D-04 at cycle   7 NSaved=   7.
 NSaved= 7 IEnMin= 7 EnMin= -1470.29932320948     IErMin= 7 ErrMin= 9.20D-04
 ErrMax= 9.20D-04  0.00D+00 EMaxC= 1.00D-01 BMatC= 1.08D-03 BMatP= 3.19D-02
 IDIUse=3 WtCom= 9.91D-01 WtEn= 9.20D-03
 Coeff-Com: -0.106D-01 0.134D-01 0.448D-02-0.349D-01-0.210D+00 0.552D+00
 Coeff-Com:  0.686D+00
 Coeff-En:   0.000D+00 0.000D+00 0.000D+00 0.000D+00 0.000D+00 0.000D+00
 Coeff-En:   0.100D+01
 Coeff:     -0.105D-01 0.133D-01 0.444D-02-0.346D-01-0.208D+00 0.547D+00
 Coeff:      0.689D+00
 Gap=     0.169 Goal=   None    Shift=    0.000
 RMSDP=3.08D-04 MaxDP=1.12D-02 DE=-3.04D-02 OVMax= 1.26D-02

 Cycle   8  Pass 1  IDiag  1:
 RMSU=  2.71D-04    CP:  4.63D-01  2.23D+00  2.44D-01  1.00D+00  8.11D-01
                    CP:  1.68D+00  1.07D+00
 E= -1470.30046416053     Delta-E=       -0.001140951046 Rises=F Damp=F
 DIIS: error= 3.38D-04 at cycle   8 NSaved=   8.
 NSaved= 8 IEnMin= 8 EnMin= -1470.30046416053     IErMin= 8 ErrMin= 3.38D-04
 ErrMax= 3.38D-04  0.00D+00 EMaxC= 1.00D-01 BMatC= 1.26D-04 BMatP= 1.08D-03
 IDIUse=3 WtCom= 9.97D-01 WtEn= 3.38D-03
 Coeff-Com: -0.474D-03-0.495D-03 0.264D-02-0.694D-02-0.419D-01 0.439D-01
 Coeff-Com:  0.239D+00 0.764D+00
 Coeff-En:   0.000D+00 0.000D+00 0.000D+00 0.000D+00 0.000D+00 0.000D+00
 Coeff-En:   0.000D+00 0.100D+01
 Coeff:     -0.472D-03-0.493D-03 0.264D-02-0.692D-02-0.417D-01 0.437D-01
 Coeff:      0.239D+00 0.765D+00
 Gap=     0.169 Goal=   None    Shift=    0.000
 RMSDP=1.34D-04 MaxDP=4.84D-03 DE=-1.14D-03 OVMax= 4.93D-03

 Cycle   9  Pass 1  IDiag  1:
 RMSU=  8.52D-05    CP:  4.62D-01  2.23D+00  2.43D-01  1.00D+00  8.07D-01
                    CP:  1.69D+00  1.21D+00  1.05D+00
 E= -1470.30065110349     Delta-E=       -0.000186942964 Rises=F Damp=F
 DIIS: error= 1.36D-04 at cycle   9 NSaved=   9.
 NSaved= 9 IEnMin= 9 EnMin= -1470.30065110349     IErMin= 9 ErrMin= 1.36D-04
 ErrMax= 1.36D-04  0.00D+00 EMaxC= 1.00D-01 BMatC= 2.03D-05 BMatP= 1.26D-04
 IDIUse=3 WtCom= 9.99D-01 WtEn= 1.36D-03
 Coeff-Com:  0.336D-02-0.504D-02-0.375D-03 0.197D-02 0.189D-01-0.693D-01
 Coeff-Com: -0.113D-01 0.335D+00 0.727D+00
 Coeff-En:   0.000D+00 0.000D+00 0.000D+00 0.000D+00 0.000D+00 0.000D+00
 Coeff-En:   0.000D+00 0.000D+00 0.100D+01
 Coeff:      0.336D-02-0.503D-02-0.374D-03 0.197D-02 0.189D-01-0.692D-01
 Coeff:     -0.113D-01 0.334D+00 0.727D+00
 Gap=     0.169 Goal=   None    Shift=    0.000
 RMSDP=6.35D-05 MaxDP=2.45D-03 DE=-1.87D-04 OVMax= 2.67D-03

 Cycle  10  Pass 1  IDiag  1:
 RMSU=  3.43D-05    CP:  4.62D-01  2.23D+00  2.43D-01  1.00D+00  8.07D-01
                    CP:  1.69D+00  1.25D+00  1.18D+00  1.22D+00
 E= -1470.30068743217     Delta-E=       -0.000036328674 Rises=F Damp=F
 DIIS: error= 7.17D-05 at cycle  10 NSaved=  10.
 NSaved=10 IEnMin=10 EnMin= -1470.30068743217     IErMin=10 ErrMin= 7.17D-05
 ErrMax= 7.17D-05  0.00D+00 EMaxC= 1.00D-01 BMatC= 6.06D-06 BMatP= 2.03D-05
 IDIUse=1 WtCom= 1.00D+00 WtEn= 0.00D+00
 Coeff-Com: -0.334D-03 0.358D-03-0.451D-03 0.136D-02 0.120D-01-0.193D-01
 Coeff-Com: -0.409D-01-0.402D-01 0.161D+00 0.926D+00
 Coeff:     -0.334D-03 0.358D-03-0.451D-03 0.136D-02 0.120D-01-0.193D-01
 Coeff:     -0.409D-01-0.402D-01 0.161D+00 0.926D+00
 Gap=     0.169 Goal=   None    Shift=    0.000
 RMSDP=4.01D-05 MaxDP=1.32D-03 DE=-3.63D-05 OVMax= 1.50D-03

 Cycle  11  Pass 1  IDiag  1:
 RMSU=  1.42D-05    CP:  4.62D-01  2.23D+00  2.43D-01  1.00D+00  8.08D-01
                    CP:  1.68D+00  1.27D+00  1.22D+00  1.46D+00  1.22D+00
 E= -1470.30069851831     Delta-E=       -0.000011086143 Rises=F Damp=F
 DIIS: error= 2.70D-05 at cycle  11 NSaved=  11.
 NSaved=11 IEnMin=11 EnMin= -1470.30069851831     IErMin=11 ErrMin= 2.70D-05
 ErrMax= 2.70D-05  0.00D+00 EMaxC= 1.00D-01 BMatC= 3.56D-07 BMatP= 6.06D-06
 IDIUse=1 WtCom= 1.00D+00 WtEn= 0.00D+00
 Coeff-Com: -0.694D-03 0.974D-03-0.870D-04 0.293D-04 0.676D-03 0.505D-02
 Coeff-Com: -0.110D-01-0.713D-01-0.721D-01 0.307D+00 0.841D+00
 Coeff:     -0.694D-03 0.974D-03-0.870D-04 0.293D-04 0.676D-03 0.505D-02
 Coeff:     -0.110D-01-0.713D-01-0.721D-01 0.307D+00 0.841D+00
 Gap=     0.169 Goal=   None    Shift=    0.000
 RMSDP=1.38D-05 MaxDP=4.30D-04 DE=-1.11D-05 OVMax= 9.61D-04

 Cycle  12  Pass 1  IDiag  1:
 RMSU=  5.55D-06    CP:  4.62D-01  2.23D+00  2.43D-01  1.00D+00  8.08D-01
                    CP:  1.68D+00  1.27D+00  1.23D+00  1.54D+00  1.39D+00
                    CP:  1.38D+00
 E= -1470.30070002184     Delta-E=       -0.000001503533 Rises=F Damp=F
 DIIS: error= 1.55D-05 at cycle  12 NSaved=  12.
 NSaved=12 IEnMin=12 EnMin= -1470.30070002184     IErMin=12 ErrMin= 1.55D-05
 ErrMax= 1.55D-05  0.00D+00 EMaxC= 1.00D-01 BMatC= 1.93D-07 BMatP= 3.56D-07
 IDIUse=1 WtCom= 1.00D+00 WtEn= 0.00D+00
 Coeff-Com: -0.411D-04 0.838D-04 0.538D-04-0.207D-03-0.177D-02 0.301D-02
 Coeff-Com:  0.418D-02-0.124D-01-0.393D-01-0.433D-01 0.223D+00 0.866D+00
 Coeff:     -0.411D-04 0.838D-04 0.538D-04-0.207D-03-0.177D-02 0.301D-02
 Coeff:      0.418D-02-0.124D-01-0.393D-01-0.433D-01 0.223D+00 0.866D+00
 Gap=     0.169 Goal=   None    Shift=    0.000
 RMSDP=6.13D-06 MaxDP=2.15D-04 DE=-1.50D-06 OVMax= 5.71D-04

 Cycle  13  Pass 1  IDiag  1:
 RMSU=  3.07D-06    CP:  4.62D-01  2.23D+00  2.43D-01  1.00D+00  8.08D-01
                    CP:  1.68D+00  1.27D+00  1.23D+00  1.55D+00  1.44D+00
                    CP:  1.59D+00  1.45D+00
 E= -1470.30070053110     Delta-E=       -0.000000509258 Rises=F Damp=F
 DIIS: error= 9.64D-06 at cycle  13 NSaved=  13.
 NSaved=13 IEnMin=13 EnMin= -1470.30070053110     IErMin=13 ErrMin= 9.64D-06
 ErrMax= 9.64D-06  0.00D+00 EMaxC= 1.00D-01 BMatC= 1.94D-08 BMatP= 1.93D-07
 IDIUse=1 WtCom= 1.00D+00 WtEn= 0.00D+00
 Coeff-Com:  0.238D-04-0.278D-04 0.507D-04-0.328D-04-0.791D-03-0.326D-03
 Coeff-Com:  0.461D-02 0.122D-01 0.300D-02-0.892D-01-0.129D+00 0.266D+00
 Coeff-Com:  0.933D+00
 Coeff:      0.238D-04-0.278D-04 0.507D-04-0.328D-04-0.791D-03-0.326D-03
 Coeff:      0.461D-02 0.122D-01 0.300D-02-0.892D-01-0.129D+00 0.266D+00
 Coeff:      0.933D+00
 Gap=     0.169 Goal=   None    Shift=    0.000
 RMSDP=4.08D-06 MaxDP=1.39D-04 DE=-5.09D-07 OVMax= 4.17D-04

 Cycle  14  Pass 1  IDiag  1:
 RMSU=  1.18D-06    CP:  4.62D-01  2.23D+00  2.43D-01  1.00D+00  8.08D-01
                    CP:  1.68D+00  1.27D+00  1.23D+00  1.55D+00  1.47D+00
                    CP:  1.73D+00  1.92D+00  1.56D+00
 E= -1470.30070068814     Delta-E=       -0.000000157042 Rises=F Damp=F
 DIIS: error= 4.65D-06 at cycle  14 NSaved=  14.
 NSaved=14 IEnMin=14 EnMin= -1470.30070068814     IErMin=14 ErrMin= 4.65D-06
 ErrMax= 4.65D-06  0.00D+00 EMaxC= 1.00D-01 BMatC= 5.10D-09 BMatP= 1.94D-08
 IDIUse=1 WtCom= 1.00D+00 WtEn= 0.00D+00
 Coeff-Com:  0.181D-04-0.295D-04-0.871D-05 0.334D-04 0.354D-03-0.902D-03
 Coeff-Com:  0.272D-04 0.643D-02 0.124D-01-0.101D-01-0.914D-01-0.174D+00
 Coeff-Com:  0.212D+00 0.105D+01
 Coeff:      0.181D-04-0.295D-04-0.871D-05 0.334D-04 0.354D-03-0.902D-03
 Coeff:      0.272D-04 0.643D-02 0.124D-01-0.101D-01-0.914D-01-0.174D+00
 Coeff:      0.212D+00 0.105D+01
 Gap=     0.169 Goal=   None    Shift=    0.000
 RMSDP=2.72D-06 MaxDP=9.34D-05 DE=-1.57D-07 OVMax= 2.68D-04

 Cycle  15  Pass 1  IDiag  1:
 RMSU=  7.33D-07    CP:  4.62D-01  2.23D+00  2.43D-01  1.00D+00  8.08D-01
                    CP:  1.68D+00  1.27D+00  1.23D+00  1.56D+00  1.48D+00
                    CP:  1.81D+00  2.18D+00  2.08D+00  1.63D+00
 E= -1470.30070073787     Delta-E=       -0.000000049723 Rises=F Damp=F
 DIIS: error= 1.96D-06 at cycle  15 NSaved=  15.
 NSaved=15 IEnMin=15 EnMin= -1470.30070073787     IErMin=15 ErrMin= 1.96D-06
 ErrMax= 1.96D-06  0.00D+00 EMaxC= 1.00D-01 BMatC= 1.56D-09 BMatP= 5.10D-09
 IDIUse=1 WtCom= 1.00D+00 WtEn= 0.00D+00
 Coeff-Com:  0.239D-04-0.358D-04-0.194D-04 0.234D-04 0.382D-03-0.444D-03
 Coeff-Com: -0.989D-03 0.630D-03 0.601D-02 0.128D-01-0.182D-01-0.123D+00
 Coeff-Com: -0.115D+00 0.457D+00 0.781D+00
 Coeff:      0.239D-04-0.358D-04-0.194D-04 0.234D-04 0.382D-03-0.444D-03
 Coeff:     -0.989D-03 0.630D-03 0.601D-02 0.128D-01-0.182D-01-0.123D+00
 Coeff:     -0.115D+00 0.457D+00 0.781D+00
 Gap=     0.169 Goal=   None    Shift=    0.000
 RMSDP=1.06D-06 MaxDP=3.05D-05 DE=-4.97D-08 OVMax= 1.07D-04

 Cycle  16  Pass 1  IDiag  1:
 RMSU=  3.05D-07    CP:  4.62D-01  2.23D+00  2.43D-01  1.00D+00  8.08D-01
                    CP:  1.68D+00  1.27D+00  1.23D+00  1.56D+00  1.49D+00
                    CP:  1.84D+00  2.27D+00  2.26D+00  2.04D+00  1.27D+00
 E= -1470.30070074729     Delta-E=       -0.000000009428 Rises=F Damp=F
 DIIS: error= 9.61D-07 at cycle  16 NSaved=  16.
 NSaved=16 IEnMin=16 EnMin= -1470.30070074729     IErMin=16 ErrMin= 9.61D-07
 ErrMax= 9.61D-07  0.00D+00 EMaxC= 1.00D-01 BMatC= 3.96D-10 BMatP= 1.56D-09
 IDIUse=1 WtCom= 1.00D+00 WtEn= 0.00D+00
 Coeff-Com: -0.715D-05 0.947D-05-0.685D-06-0.153D-05-0.106D-04 0.207D-03
 Coeff-Com: -0.265D-03-0.222D-02-0.251D-02 0.695D-02 0.233D-01 0.257D-01
 Coeff-Com: -0.106D+00-0.192D+00 0.229D+00 0.102D+01
 Coeff:     -0.715D-05 0.947D-05-0.685D-06-0.153D-05-0.106D-04 0.207D-03
 Coeff:     -0.265D-03-0.222D-02-0.251D-02 0.695D-02 0.233D-01 0.257D-01
 Coeff:     -0.106D+00-0.192D+00 0.229D+00 0.102D+01
 Gap=     0.169 Goal=   None    Shift=    0.000
 RMSDP=6.48D-07 MaxDP=2.05D-05 DE=-9.43D-09 OVMax= 6.09D-05

 Cycle  17  Pass 1  IDiag  1:
 RMSU=  1.43D-07    CP:  4.62D-01  2.23D+00  2.43D-01  1.00D+00  8.08D-01
                    CP:  1.68D+00  1.27D+00  1.23D+00  1.56D+00  1.49D+00
                    CP:  1.85D+00  2.30D+00  2.35D+00  2.28D+00  1.63D+00
                    CP:  1.35D+00
 E= -1470.30070074974     Delta-E=       -0.000000002443 Rises=F Damp=F
 DIIS: error= 4.15D-07 at cycle  17 NSaved=  17.
 NSaved=17 IEnMin=17 EnMin= -1470.30070074974     IErMin=17 ErrMin= 4.15D-07
 ErrMax= 4.15D-07  0.00D+00 EMaxC= 1.00D-01 BMatC= 6.08D-11 BMatP= 3.96D-10
 IDIUse=1 WtCom= 1.00D+00 WtEn= 0.00D+00
 Coeff-Com: -0.328D-05 0.479D-05 0.253D-05-0.415D-05-0.598D-04 0.117D-03
 Coeff-Com:  0.537D-04-0.818D-03-0.160D-02 0.209D-03 0.994D-02 0.285D-01
 Coeff-Com: -0.214D-01-0.147D+00-0.275D-01 0.396D+00 0.763D+00
 Coeff:     -0.328D-05 0.479D-05 0.253D-05-0.415D-05-0.598D-04 0.117D-03
 Coeff:      0.537D-04-0.818D-03-0.160D-02 0.209D-03 0.994D-02 0.285D-01
 Coeff:     -0.214D-01-0.147D+00-0.275D-01 0.396D+00 0.763D+00
 Gap=     0.169 Goal=   None    Shift=    0.000
 RMSDP=1.70D-07 MaxDP=4.40D-06 DE=-2.44D-09 OVMax= 2.12D-05

 Cycle  18  Pass 1  IDiag  1:
 RMSU=  5.04D-08    CP:  4.62D-01  2.23D+00  2.43D-01  1.00D+00  8.08D-01
                    CP:  1.68D+00  1.27D+00  1.23D+00  1.56D+00  1.49D+00
                    CP:  1.85D+00  2.31D+00  2.37D+00  2.33D+00  1.71D+00
                    CP:  1.59D+00  1.34D+00
 E= -1470.30070074998     Delta-E=       -0.000000000244 Rises=F Damp=F
 DIIS: error= 1.95D-07 at cycle  18 NSaved=  18.
 NSaved=18 IEnMin=18 EnMin= -1470.30070074998     IErMin=18 ErrMin= 1.95D-07
 ErrMax= 1.95D-07  0.00D+00 EMaxC= 1.00D-01 BMatC= 8.36D-12 BMatP= 6.08D-11
 IDIUse=1 WtCom= 1.00D+00 WtEn= 0.00D+00
 Coeff-Com:  0.583D-07 0.373D-07 0.602D-07-0.121D-05-0.447D-05-0.226D-04
 Coeff-Com:  0.431D-04 0.320D-03 0.411D-03-0.110D-02-0.346D-02-0.302D-02
 Coeff-Com:  0.176D-01 0.233D-01-0.406D-01-0.142D+00 0.262D-01 0.112D+01
 Coeff:      0.583D-07 0.373D-07 0.602D-07-0.121D-05-0.447D-05-0.226D-04
 Coeff:      0.431D-04 0.320D-03 0.411D-03-0.110D-02-0.346D-02-0.302D-02
 Coeff:      0.176D-01 0.233D-01-0.406D-01-0.142D+00 0.262D-01 0.112D+01
 Gap=     0.169 Goal=   None    Shift=    0.000
 RMSDP=7.81D-08 MaxDP=2.31D-06 DE=-2.44D-10 OVMax= 1.17D-05

 Cycle  19  Pass 1  IDiag  1:
 RMSU=  2.68D-08    CP:  4.62D-01  2.23D+00  2.43D-01  1.00D+00  8.08D-01
                    CP:  1.68D+00  1.27D+00  1.23D+00  1.56D+00  1.49D+00
                    CP:  1.85D+00  2.31D+00  2.38D+00  2.34D+00  1.73D+00
                    CP:  1.69D+00  1.70D+00  1.62D+00
 E= -1470.30070075005     Delta-E=       -0.000000000070 Rises=F Damp=F
 DIIS: error= 1.02D-07 at cycle  19 NSaved=  19.
 NSaved=19 IEnMin=19 EnMin= -1470.30070075005     IErMin=19 ErrMin= 1.02D-07
 ErrMax= 1.02D-07  0.00D+00 EMaxC= 1.00D-01 BMatC= 2.65D-12 BMatP= 8.36D-12
 IDIUse=1 WtCom= 1.00D+00 WtEn= 0.00D+00
 Coeff-Com: -0.384D-06 0.512D-06-0.457D-06 0.426D-06 0.942D-05-0.302D-04
 Coeff-Com:  0.596D-05 0.291D-03 0.508D-03-0.482D-03-0.355D-02-0.708D-02
 Coeff-Com:  0.123D-01 0.415D-01-0.142D-01-0.144D+00-0.163D+00 0.491D+00
 Coeff-Com:  0.786D+00
 Coeff:     -0.384D-06 0.512D-06-0.457D-06 0.426D-06 0.942D-05-0.302D-04
 Coeff:      0.596D-05 0.291D-03 0.508D-03-0.482D-03-0.355D-02-0.708D-02
 Coeff:      0.123D-01 0.415D-01-0.142D-01-0.144D+00-0.163D+00 0.491D+00
 Coeff:      0.786D+00
 Gap=     0.169 Goal=   None    Shift=    0.000
 RMSDP=3.72D-08 MaxDP=1.16D-06 DE=-7.05D-11 OVMax= 5.66D-06

 Cycle  20  Pass 1  IDiag  1:
 RMSU=  1.25D-08    CP:  4.62D-01  2.23D+00  2.43D-01  1.00D+00  8.08D-01
                    CP:  1.68D+00  1.27D+00  1.23D+00  1.56D+00  1.49D+00
                    CP:  1.85D+00  2.31D+00  2.38D+00  2.34D+00  1.73D+00
                    CP:  1.73D+00  1.85D+00  2.01D+00  1.45D+00
 E= -1470.30070075007     Delta-E=       -0.000000000022 Rises=F Damp=F
 DIIS: error= 5.17D-08 at cycle  20 NSaved=  20.
 NSaved=20 IEnMin=20 EnMin= -1470.30070075007     IErMin=20 ErrMin= 5.17D-08
 ErrMax= 5.17D-08  0.00D+00 EMaxC= 1.00D-01 BMatC= 5.44D-13 BMatP= 2.65D-12
 IDIUse=1 WtCom= 1.00D+00 WtEn= 0.00D+00
 Coeff-Com:  0.358D-06-0.528D-06-0.967D-07 0.510D-06 0.384D-05-0.199D-05
 Coeff-Com: -0.135D-04-0.289D-04 0.172D-04 0.258D-03 0.687D-04-0.805D-03
 Coeff-Com: -0.263D-02 0.279D-02 0.700D-02 0.136D-01-0.380D-01-0.229D+00
 Coeff-Com:  0.102D+00 0.115D+01
 Coeff:      0.358D-06-0.528D-06-0.967D-07 0.510D-06 0.384D-05-0.199D-05
 Coeff:     -0.135D-04-0.289D-04 0.172D-04 0.258D-03 0.687D-04-0.805D-03
 Coeff:     -0.263D-02 0.279D-02 0.700D-02 0.136D-01-0.380D-01-0.229D+00
 Coeff:      0.102D+00 0.115D+01
 Gap=     0.169 Goal=   None    Shift=    0.000
 RMSDP=2.70D-08 MaxDP=9.75D-07 DE=-2.18D-11 OVMax= 4.34D-06

 Cycle  21  Pass 1  IDiag  1:
 Restarting incremental Fock formation.
 E= -1470.30070075056     Delta-E=       -0.000000000487 Rises=F Damp=F
 DIIS: error= 2.19D-08 at cycle  21 NSaved=  20.
 NSaved=20 IEnMin=20 EnMin= -1470.30070075056     IErMin=20 ErrMin= 2.19D-08
 ErrMax= 2.19D-08  0.00D+00 EMaxC= 1.00D-01 BMatC= 1.50D-13 BMatP= 5.44D-13
 IDIUse=1 WtCom= 1.00D+00 WtEn= 0.00D+00
 Coeff-Com: -0.168D-07 0.767D-07 0.145D-06-0.121D-05 0.696D-05-0.423D-05
 Coeff-Com: -0.814D-04-0.130D-03 0.177D-03 0.916D-03 0.175D-02-0.370D-02
 Coeff-Com: -0.101D-01 0.482D-02 0.397D-01 0.330D-01-0.177D+00-0.157D+00
 Coeff-Com:  0.294D+00 0.974D+00
 Coeff:     -0.168D-07 0.767D-07 0.145D-06-0.121D-05 0.696D-05-0.423D-05
 Coeff:     -0.814D-04-0.130D-03 0.177D-03 0.916D-03 0.175D-02-0.370D-02
 Coeff:     -0.101D-01 0.482D-02 0.397D-01 0.330D-01-0.177D+00-0.157D+00
 Coeff:      0.294D+00 0.974D+00
 Gap=     0.169 Goal=   None    Shift=    0.000
 RMSDP=1.19D-08 MaxDP=4.29D-07 DE=-4.87D-10 OVMax= 1.74D-06

 Cycle  22  Pass 1  IDiag  1:
 RMSU=  1.19D-08    CP:  1.00D+00
 E= -1470.30070075059     Delta-E=       -0.000000000027 Rises=F Damp=F
 DIIS: error= 8.14D-09 at cycle  22 NSaved=  20.
 NSaved=20 IEnMin=20 EnMin= -1470.30070075059     IErMin=20 ErrMin= 8.14D-09
 ErrMax= 8.14D-09  0.00D+00 EMaxC= 1.00D-01 BMatC= 3.79D-14 BMatP= 1.50D-13
 IDIUse=1 WtCom= 1.00D+00 WtEn= 0.00D+00
 Coeff-Com:  0.407D-07-0.105D-06-0.860D-06 0.198D-05 0.763D-06-0.152D-04
 Coeff-Com: -0.384D-04 0.874D-06 0.232D-03 0.565D-03-0.515D-03-0.310D-02
 Coeff-Com:  0.254D-03 0.790D-02 0.171D-01-0.343D-02-0.739D-01-0.171D+00
 Coeff-Com:  0.383D+00 0.843D+00
 Coeff:      0.407D-07-0.105D-06-0.860D-06 0.198D-05 0.763D-06-0.152D-04
 Coeff:     -0.384D-04 0.874D-06 0.232D-03 0.565D-03-0.515D-03-0.310D-02
 Coeff:      0.254D-03 0.790D-02 0.171D-01-0.343D-02-0.739D-01-0.171D+00
 Coeff:      0.383D+00 0.843D+00
 Gap=     0.169 Goal=   None    Shift=    0.000
 RMSDP=5.10D-09 MaxDP=1.82D-07 DE=-2.73D-11 OVMax= 6.83D-07

 SCF Done:  E(RwB97XD) =  -1470.30070075     A.U. after   22 cycles
            NFock= 22  Conv=0.51D-08     -V/T= 3.6221
 KE= 5.607247399398D+02 PE=-7.988596603361D+03 EE= 3.548888122543D+03
 Leave Link  502 at Wed Feb 26 03:28:36 2025, MaxMem=  2097152000 cpu:             990.5 elap:             250.1
 (Enter /nvme/h/buildsets/eb_nepheli/software/Gaussian/16.C.01-AVX2/g16/l508.exe)
 QCSCF skips out because SCF is already converged.
 Leave Link  508 at Wed Feb 26 03:28:36 2025, MaxMem=  2097152000 cpu:               0.0 elap:               0.0
 (Enter /nvme/h/buildsets/eb_nepheli/software/Gaussian/16.C.01-AVX2/g16/l601.exe)
 Copying SCF densities to generalized density rwf, IOpCl= 0 IROHF=0.

 **********************************************************************

            Population analysis using the SCF Density.

 **********************************************************************

 Orbital symmetries:
       Occupied  (A) (A) (A) (A) (A) (A) (A) (A) (A) (A) (A) (A)
                 (A) (A) (A) (A) (A) (A) (A) (A) (A) (A) (A) (A)
                 (A) (A) (A) (A) (A) (A) (A) (A) (A) (A) (A) (A)
                 (A) (A) (A) (A) (A) (A) (A) (A) (A) (A) (A) (A)
                 (A) (A) (A) (A) (A) (A) (A) (A) (A) (A) (A) (A)
                 (A) (A) (A) (A) (A) (A) (A) (A) (A) (A) (A) (A)
                 (A) (A) (A) (A) (A) (A) (A) (A) (A) (A) (A) (A)
                 (A) (A) (A) (A) (A) (A) (A) (A) (A) (A) (A)
       Virtual   (A) (A) (A) (A) (A) (A) (A) (A) (A) (A) (A) (A)
                 (A) (A) (A) (A) (A) (A) (A) (A) (A) (A) (A) (A)
                 (A) (A) (A) (A) (A) (A) (A) (A) (A) (A) (A) (A)
                 (A) (A) (A) (A) (A) (A) (A) (A) (A) (A) (A) (A)
                 (A) (A) (A) (A) (A) (A) (A) (A) (A) (A) (A) (A)
                 (A) (A) (A) (A) (A) (A) (A) (A) (A) (A) (A) (A)
                 (A) (A) (A) (A) (A) (A) (A) (A) (A) (A) (A) (A)
                 (A) (A) (A) (A) (A) (A) (A) (A) (A) (A) (A) (A)
                 (A) (A) (A) (A) (A) (A) (A) (A) (A) (A) (A) (A)
                 (A) (A) (A) (A) (A) (A) (A) (A) (A) (A) (A) (A)
                 (A) (A) (A) (A) (A) (A) (A) (A) (A) (A) (A) (A)
                 (A) (A) (A) (A) (A) (A) (A) (A) (A) (A) (A) (A)
                 (A) (A) (A) (A) (A) (A) (A) (A) (A) (A) (A) (A)
                 (A) (A) (A) (A) (A) (A) (A) (A) (A) (A) (A) (A)
                 (A) (A) (A) (A) (A) (A) (A) (A) (A) (A) (A) (A)
                 (A) (A) (A) (A) (A) (A) (A) (A) (A) (A) (A) (A)
                 (A) (A) (A) (A) (A) (A) (A) (A) (A) (A) (A) (A)
                 (A) (A) (A) (A) (A) (A) (A) (A) (A) (A) (A)
 The electronic state is 1-A.
 Alpha  occ. eigenvalues --   -3.85228  -3.85194  -3.84628  -3.84557  -3.84394
 Alpha  occ. eigenvalues --   -3.84358  -3.84006  -3.83962  -3.83956  -3.81583
 Alpha  occ. eigenvalues --   -2.43692  -2.43427  -2.43365  -2.43302  -2.43287
 Alpha  occ. eigenvalues --   -2.43204  -2.42928  -2.42878  -2.42797  -2.42732
 Alpha  occ. eigenvalues --   -2.42658  -2.42610  -2.42597  -2.42553  -2.42529
 Alpha  occ. eigenvalues --   -2.42497  -2.42464  -2.42448  -2.42233  -2.42212
 Alpha  occ. eigenvalues --   -2.42182  -2.42154  -2.42109  -2.42083  -2.42029
 Alpha  occ. eigenvalues --   -2.42013  -2.42004  -2.39901  -2.39716  -2.39518
 Alpha  occ. eigenvalues --   -0.47345  -0.46944  -0.46476  -0.46410  -0.45936
 Alpha  occ. eigenvalues --   -0.45375  -0.45288  -0.45132  -0.45024  -0.44854
 Alpha  occ. eigenvalues --   -0.44623  -0.44471  -0.44376  -0.44146  -0.43746
 Alpha  occ. eigenvalues --   -0.43387  -0.43142  -0.42833  -0.42716  -0.42605
 Alpha  occ. eigenvalues --   -0.42477  -0.42061  -0.41922  -0.41738  -0.41621
 Alpha  occ. eigenvalues --   -0.41051  -0.40880  -0.40860  -0.40816  -0.40600
 Alpha  occ. eigenvalues --   -0.40503  -0.40259  -0.40176  -0.40043  -0.39792
 Alpha  occ. eigenvalues --   -0.39621  -0.39613  -0.39358  -0.39333  -0.39244
 Alpha  occ. eigenvalues --   -0.39153  -0.38970  -0.38818  -0.38634  -0.38494
 Alpha  occ. eigenvalues --   -0.38257  -0.38175  -0.37954  -0.37828  -0.37455
 Alpha  occ. eigenvalues --   -0.36645  -0.30147  -0.27456  -0.24069  -0.21894
 Alpha virt. eigenvalues --   -0.04957  -0.03579  -0.03246  -0.02694  -0.01325
 Alpha virt. eigenvalues --   -0.00070   0.03136   0.03465   0.03721   0.05393
 Alpha virt. eigenvalues --    0.05697   0.05944   0.06349   0.07840   0.08735
 Alpha virt. eigenvalues --    0.09096   0.10603   0.11046   0.12072   0.13188
 Alpha virt. eigenvalues --    0.13472   0.13852   0.14177   0.14331   0.14736
 Alpha virt. eigenvalues --    0.14993   0.15460   0.15734   0.16620   0.16919
 Alpha virt. eigenvalues --    0.17296   0.18279   0.19375   0.20605   0.21395
 Alpha virt. eigenvalues --    0.22662   0.25192   0.25817   0.26812   0.27254
 Alpha virt. eigenvalues --    0.27426   0.27935   0.28542   0.29159   0.30702
 Alpha virt. eigenvalues --    0.30975   0.31616   0.32347   0.32465   0.32822
 Alpha virt. eigenvalues --    0.33436   0.33947   0.34934   0.37630   0.38156
 Alpha virt. eigenvalues --    0.39671   0.39834   0.40915   0.41365   0.42025
 Alpha virt. eigenvalues --    0.42832   0.44010   0.44491   0.44980   0.46088
 Alpha virt. eigenvalues --    0.46298   0.48032   0.48952   0.49769   0.50834
 Alpha virt. eigenvalues --    0.52989   0.53357   0.55042   0.55526   0.56400
 Alpha virt. eigenvalues --    0.57410   0.59017   0.60027   0.60609   0.62000
 Alpha virt. eigenvalues --    0.62794   0.64636   0.64914   0.66130   0.66282
 Alpha virt. eigenvalues --    0.67086   0.68112   0.68666   0.70142   0.70948
 Alpha virt. eigenvalues --    0.71299   0.71921   0.73142   0.74406   0.74857
 Alpha virt. eigenvalues --    0.75084   0.76194   0.76794   0.78673   0.78751
 Alpha virt. eigenvalues --    0.79618   0.81084   0.81802   0.82636   0.83506
 Alpha virt. eigenvalues --    0.84801   0.85485   0.85628   0.85967   0.87074
 Alpha virt. eigenvalues --    0.88531   0.89288   0.90948   0.91150   0.93099
 Alpha virt. eigenvalues --    0.94554   0.96108   0.97715   0.99167   1.00872
 Alpha virt. eigenvalues --    1.02525   1.02881   1.05208   1.07648   1.08528
 Alpha virt. eigenvalues --    2.16130   2.20659   2.23819   2.29793   2.32446
 Alpha virt. eigenvalues --    2.36849   2.38307   2.41412   2.43627   2.47420
 Alpha virt. eigenvalues --    2.66959   2.67046   2.67067   2.67077   2.67213
 Alpha virt. eigenvalues --    2.67365   2.67383   2.67439   2.67540   2.67605
 Alpha virt. eigenvalues --    2.67638   2.67651   2.67729   2.67744   2.67795
 Alpha virt. eigenvalues --    2.67844   2.67856   2.67870   2.67898   2.67965
 Alpha virt. eigenvalues --    2.67993   2.68004   2.68053   2.68094   2.68138
 Alpha virt. eigenvalues --    2.68166   2.68198   2.68253   2.68293   2.68308
 Alpha virt. eigenvalues --    2.68381   2.68464   2.68526   2.68544   2.68600
 Alpha virt. eigenvalues --    2.68628   2.68713   2.68868   2.68905   2.68943
 Alpha virt. eigenvalues --    2.69063   2.69161   2.69283   2.69369   2.69545
 Alpha virt. eigenvalues --    2.69681   2.69747   2.69771   2.69984   2.70033
 Alpha virt. eigenvalues --    2.70123   2.70252   2.70427   2.70484   2.70559
 Alpha virt. eigenvalues --    2.70650   2.70725   2.70755   2.70894   2.71011
 Alpha virt. eigenvalues --    2.71051   2.71130   2.71304   2.71663   2.72032
 Alpha virt. eigenvalues --    2.72488   2.74193   2.75663   2.76466   2.79167
 Alpha virt. eigenvalues --   54.32888  54.36035  54.37393  54.42296  54.43936
 Alpha virt. eigenvalues --   54.47734  54.49590  54.51912  54.54354  54.58257
          Condensed to atoms (all electrons):
               1          2          3          4          5          6
     1  Ag  18.633370   0.000462   0.089100   0.098409   0.058640   0.021505
     2  Ag   0.000462  18.389613  -0.008397   0.096130   0.059401   0.011653
     3  Ag   0.089100  -0.008397  18.366162   0.076223  -0.013486  -0.011119
     4  Ag   0.098409   0.096130   0.076223  18.808850   0.099781   0.021377
     5  Ag   0.058640   0.059401  -0.013486   0.099781  18.733876   0.095322
     6  Ag   0.021505   0.011653  -0.011119   0.021377   0.095322  18.878982
     7  Ag   0.113120  -0.017913   0.017166   0.011062   0.028290   0.094098
     8  Ag   0.177222  -0.000089   0.006248  -0.014244   0.034920   0.036316
     9  Ag  -0.007229   0.115647   0.053257   0.034405  -0.036542   0.085496
    10  Ag   0.014512  -0.020600  -0.009804   0.086343   0.050710   0.130321
               7          8          9         10
     1  Ag   0.113120   0.177222  -0.007229   0.014512
     2  Ag  -0.017913  -0.000089   0.115647  -0.020600
     3  Ag   0.017166   0.006248   0.053257  -0.009804
     4  Ag   0.011062  -0.014244   0.034405   0.086343
     5  Ag   0.028290   0.034920  -0.036542   0.050710
     6  Ag   0.094098   0.036316   0.085496   0.130321
     7  Ag  18.518146   0.143372  -0.005126   0.116581
     8  Ag   0.143372  18.522166  -0.000242  -0.008624
     9  Ag  -0.005126  -0.000242  18.683404   0.053017
    10  Ag   0.116581  -0.008624   0.053017  18.512045
 Mulliken charges:
               1
     1  Ag  -0.199112
     2  Ag   0.374092
     3  Ag   0.434651
     4  Ag  -0.318336
     5  Ag  -0.110911
     6  Ag  -0.363952
     7  Ag  -0.018797
     8  Ag   0.102954
     9  Ag   0.023911
    10  Ag   0.075499
 Sum of Mulliken charges =  -0.00000
 Mulliken charges with hydrogens summed into heavy atoms:
               1
     1  Ag  -0.199112
     2  Ag   0.374092
     3  Ag   0.434651
     4  Ag  -0.318336
     5  Ag  -0.110911
     6  Ag  -0.363952
     7  Ag  -0.018797
     8  Ag   0.102954
     9  Ag   0.023911
    10  Ag   0.075499
 Electronic spatial extent (au):  <R**2>=           5476.2792
 Charge=             -0.0000 electrons
 Dipole moment (field-independent basis, Debye):
    X=              1.3170    Y=              0.9241    Z=             -0.1265  Tot=              1.6138
 Quadrupole moment (field-independent basis, Debye-Ang):
   XX=           -195.3288   YY=           -182.7174   ZZ=           -198.4704
   XY=             -3.6166   XZ=             -0.2712   YZ=              1.8290
 Traceless Quadrupole moment (field-independent basis, Debye-Ang):
   XX=             -3.1566   YY=              9.4548   ZZ=             -6.2982
   XY=             -3.6166   XZ=             -0.2712   YZ=              1.8290
 Octapole moment (field-independent basis, Debye-Ang**2):
  XXX=             14.2247  YYY=             34.0073  ZZZ=             -0.6574  XYY=              3.0986
  XXY=            -11.0450  XXZ=              1.7428  XZZ=              2.6925  YZZ=             -1.4234
  YYZ=             -4.7637  XYZ=              7.0841
 Hexadecapole moment (field-independent basis, Debye-Ang**3):
 XXXX=          -5171.0220 YYYY=          -2405.5010 ZZZZ=          -1669.0138 XXXY=            -20.6844
 XXXZ=            -15.6002 YYYX=            -44.5584 YYYZ=             -6.3000 ZZZX=             -2.4833
 ZZZY=             18.0707 XXYY=          -1280.7670 XXZZ=          -1141.5181 YYZZ=           -683.3806
 XXYZ=             19.2453 YYXZ=              0.8757 ZZXY=             -5.1627
 N-N= 2.408683040128D+03 E-N=-7.988596606707D+03  KE= 5.607247399398D+02
 No NMR shielding tensors so no spin-rotation constants.
 Leave Link  601 at Wed Feb 26 03:28:37 2025, MaxMem=  2097152000 cpu:               0.6 elap:               0.2
 (Enter /nvme/h/buildsets/eb_nepheli/software/Gaussian/16.C.01-AVX2/g16/l701.exe)
 ... and contract with generalized density number  0.
 Compute integral first derivatives.
 R6Disp: Adding Grimme-D2 dispersion energy 1st derivatives to the gradient.
   1 Symmetry operations used in ECPInt.
 ECPInt:  NShTT=    6105 NPrTT=   18295 LenC2=    5923 LenP2D=   15119.
 LDataN:  DoStor=T MaxTD1= 8 Len=  415
 Leave Link  701 at Wed Feb 26 03:28:44 2025, MaxMem=  2097152000 cpu:              28.7 elap:               7.3
 (Enter /nvme/h/buildsets/eb_nepheli/software/Gaussian/16.C.01-AVX2/g16/l702.exe)
 L702 exits ... SP integral derivatives will be done elsewhere.
 Leave Link  702 at Wed Feb 26 03:28:44 2025, MaxMem=  2097152000 cpu:               0.0 elap:               0.0
 (Enter /nvme/h/buildsets/eb_nepheli/software/Gaussian/16.C.01-AVX2/g16/l703.exe)
 Integral derivatives from FoFJK, PRISM(SPDF).
 Compute integral first derivatives, UseDBF=F ICtDFT=           0.
 Calling FoFJK, ICntrl=      2127 FMM=F ISym2X=0 I1Cent= 0 IOpClX= 0 NMat=1 NMatS=1 NMatT=0.
 FoFJK:  IHMeth= 1 ICntrl=    2127 DoSepK=T KAlg= 0 I1Cent=           0 FoldK=F
 IRaf=         1 NMat=       1 IRICut=       1 DoRegI=T DoRafI=F ISym2E= 0 IDoP0=0 IntGTp=1.
 FoFCou: FMM=F IPFlag=           0 FMFlag=      100000 FMFlg1=         800
         NFxFlg=           0 DoJE=F BraDBF=F KetDBF=F FulRan=T
         wScrn=  0.000000 ICntrl=      2527 IOpCl=  0 I1Cent=           0 NGrid=           0
         NMat0=    1 NMatS0=      1 NMatT0=    0 NMatD0=    1 NMtDS0=    0 NMtDT0=    0
 Symmetry not used in FoFCou.
 Defaulting to unpruned grid for atomic number  47.
 Defaulting to unpruned grid for atomic number  47.
 Defaulting to unpruned grid for atomic number  47.
 Defaulting to unpruned grid for atomic number  47.
 Leave Link  703 at Wed Feb 26 03:29:48 2025, MaxMem=  2097152000 cpu:             251.4 elap:              63.5
 (Enter /nvme/h/buildsets/eb_nepheli/software/Gaussian/16.C.01-AVX2/g16/l716.exe)
 Dipole        = 5.18134444D-01 3.63574075D-01-4.97863107D-02
 ***** Axes restored to original set *****
 -------------------------------------------------------------------
 Center     Atomic                   Forces (Hartrees/Bohr)
 Number     Number              X              Y              Z
 -------------------------------------------------------------------
      1       47          -0.000000173    0.000032204   -0.000028447
      2       47          -0.000005241   -0.000008938    0.000017652
      3       47           0.000021364   -0.000057443   -0.000037225
      4       47           0.000030296    0.000003416   -0.000016797
      5       47           0.000006242   -0.000024750    0.000037304
      6       47          -0.000016064    0.000069772    0.000045482
      7       47          -0.000009094    0.000005031    0.000004910
      8       47          -0.000019894   -0.000024688    0.000021847
      9       47           0.000013085   -0.000016832   -0.000017743
     10       47          -0.000020520    0.000022228   -0.000026982
 -------------------------------------------------------------------
 Cartesian Forces:  Max     0.000069772 RMS     0.000027009
 Z-matrix is all fixed cartesians, so copy forces.
 Force constants in Cartesian coordinates: 
                1             2             3             4             5 
      1  0.299702D+00
      2  0.290904D-01  0.299964D+00
      3  0.308233D-01 -0.229107D-01  0.307682D+00
      4 -0.323240D-02 -0.405360D-02 -0.106566D-02  0.217304D+00
      5 -0.371839D-02  0.119114D-01 -0.239962D-02 -0.229230D-02  0.146861D+00
      6  0.205098D-02 -0.129072D-02  0.716042D-02 -0.445492D-01  0.181673D-01
      7 -0.357271D-01 -0.186111D-01  0.159305D-02  0.433921D-03  0.482602D-02
      8  0.202523D-01 -0.807661D-01  0.130528D-01  0.112854D-02  0.916117D-02
      9  0.622214D-03 -0.156092D-01 -0.328125D-01 -0.881044D-03  0.334070D-02
     10 -0.731179D-01 -0.156959D-01  0.203252D-01 -0.957048D-01  0.158607D-01
     11 -0.909688D-02 -0.637585D-01  0.268416D-01  0.162999D-02 -0.573322D-01
     12 -0.252058D-01 -0.389126D-02 -0.792393D-01  0.152410D-01 -0.194336D-02
     13 -0.496760D-01  0.250739D-01  0.113742D-01 -0.402215D-01 -0.390039D-01
     14 -0.105590D-01 -0.432156D-01 -0.743147D-02  0.812893D-02 -0.480638D-01
     15 -0.188584D-01  0.486072D-02 -0.259143D-01  0.155552D-01  0.464519D-02
     16 -0.351146D-01 -0.136701D-01 -0.133326D-01 -0.468751D-02  0.278239D-02
     17  0.731816D-02 -0.324748D-01 -0.181096D-01  0.414806D-02  0.100330D-01
     18  0.120381D-01 -0.148390D-01 -0.472315D-01  0.929544D-02 -0.194236D-02
     19 -0.444405D-01  0.733380D-02 -0.277127D-01 -0.310265D-03 -0.323259D-03
     20 -0.617655D-02 -0.445130D-01  0.574743D-02 -0.388639D-02  0.541976D-02
     21 -0.116178D-01  0.229282D-01 -0.781049D-01  0.611424D-02  0.499135D-02
     22 -0.517734D-01 -0.285895D-02 -0.381338D-02 -0.508968D-04  0.121611D-03
     23 -0.179954D-01 -0.586208D-01  0.815421D-02  0.562686D-04 -0.178449D-03
     24  0.270437D-01  0.321559D-01 -0.647261D-01  0.836941D-04 -0.156329D-03
     25  0.122330D-02 -0.352352D-02 -0.516868D-02 -0.370841D-01  0.348629D-01
     26 -0.547456D-02  0.131689D-02 -0.144393D-02 -0.896084D-02 -0.542465D-01
     27 -0.449172D-02 -0.361326D-03  0.107296D-01  0.102265D-01 -0.370327D-01
     28 -0.784394D-02 -0.308499D-02 -0.130228D-01 -0.364467D-01 -0.131157D-01
     29 -0.364007D-02  0.101563D-01 -0.150085D-02  0.410136D-02 -0.235652D-01
     30 -0.124046D-01 -0.104263D-02  0.245647D-02 -0.100202D-01  0.123298D-01
                6             7             8             9            10 
      6  0.139483D+00
      7  0.200197D-02  0.144176D+00
      8  0.232597D-02 -0.361301D-01  0.155501D+00
      9  0.917634D-02  0.178750D-01 -0.157849D-01  0.120331D+00
     10 -0.410094D-01 -0.865862D-01  0.402274D-02  0.307943D-01  0.405077D+00
     11  0.341602D-02  0.271663D-01 -0.642019D-01 -0.208255D-01 -0.551510D-02
     12 -0.602645D-01 -0.968507D-02  0.303788D-02 -0.567272D-01  0.161396D-02
     13 -0.725600D-03  0.647596D-02  0.828101D-02 -0.265435D-02 -0.474280D-01
     14 -0.165368D-01  0.861954D-02  0.186388D-02  0.666800D-03  0.110099D-01
     15 -0.184431D-01 -0.941543D-03 -0.182389D-02  0.699650D-02 -0.498580D-02
     16  0.876149D-02 -0.335626D-01  0.141067D-02 -0.313144D-01 -0.402587D-01
     17 -0.251363D-02  0.978517D-02 -0.319076D-01  0.288166D-01 -0.128262D-02
     18  0.622157D-02  0.315754D-02 -0.987003D-02 -0.693597D-01  0.198005D-01
     19  0.335677D-02  0.459127D-02  0.406072D-02 -0.754070D-04  0.702626D-02
     20  0.558820D-02  0.318461D-02  0.135257D-02  0.831376D-02 -0.645458D-02
     21  0.759707D-02  0.904519D-03  0.749812D-02  0.521069D-02  0.628532D-02
     22  0.109889D-03  0.443443D-02 -0.470004D-04 -0.291751D-02  0.450285D-02
     23 -0.151183D-03 -0.520932D-02  0.254072D-03  0.554128D-02 -0.201074D-02
     24 -0.293459D-04 -0.218020D-02  0.266292D-03  0.408386D-02  0.194586D-02
     25  0.299474D-01 -0.577498D-02 -0.626200D-02 -0.465390D-02 -0.417330D-01
     26 -0.161282D-01  0.441986D-02  0.516118D-02  0.194388D-02 -0.105270D-02
     27 -0.284646D-01 -0.611237D-02 -0.299167D-02  0.419737D-02 -0.231327D-01
     28  0.400557D-01  0.153936D-02  0.328316D-02 -0.679487D-02 -0.317771D-01
     29  0.712297D-02  0.194906D-02  0.358149D-02  0.359659D-02  0.111832D-02
     30 -0.624371D-01 -0.661285D-02  0.428945D-02  0.890352D-02 -0.116373D-01
               11            12            13            14            15 
     11  0.383089D+00
     12 -0.187980D-01  0.428173D+00
     13  0.859364D-02  0.699050D-02  0.189072D+00
     14 -0.844515D-01 -0.123753D-01 -0.114569D-01  0.261893D+00
     15  0.369197D-01 -0.517619D-01 -0.200682D-01  0.409184D-01  0.192122D+00
     16  0.615136D-02  0.839034D-02  0.399918D-02  0.899536D-02  0.645316D-02
     17 -0.424161D-01  0.555764D-02  0.782098D-02 -0.548931D-02 -0.994983D-02
     18 -0.149650D-01 -0.730458D-01  0.601964D-02 -0.106279D-01  0.330134D-02
     19 -0.569986D-02  0.497720D-02 -0.325326D-01 -0.131096D-01  0.217616D-01
     20 -0.494768D-03  0.127373D-01  0.131896D-01 -0.325367D-01 -0.239960D-01
     21  0.136145D-01 -0.359618D-02  0.124483D-01  0.107083D-01 -0.525327D-01
     22 -0.455304D-02  0.589016D-02 -0.459224D-02 -0.677522D-02  0.259115D-02
     23  0.339203D-02  0.203647D-02  0.213662D-02  0.514922D-02 -0.146094D-02
     24 -0.694827D-04  0.825689D-02  0.588852D-02  0.200182D-02  0.657158D-02
     25 -0.178205D-01 -0.459086D-02  0.901896D-02 -0.402664D-02 -0.955785D-03
     26 -0.484748D-01  0.510714D-02 -0.213008D-02 -0.777122D-02 -0.717264D-02
     27 -0.386441D-01 -0.619082D-01 -0.522282D-04 -0.563564D-02  0.954068D-02
     28 -0.855836D-03 -0.362143D-02 -0.341153D-01  0.917364D-02 -0.551469D-03
     29 -0.253517D-01  0.853150D-02 -0.125048D-01 -0.473778D-01 -0.429406D-01
     30  0.125101D-01 -0.498870D-01 -0.192209D-01 -0.168829D-02 -0.698804D-01
               16            17            18            19            20 
     16  0.277686D+00
     17 -0.336616D-01  0.267542D+00
     18 -0.266068D-01  0.269242D-01  0.297444D+00
     19 -0.379359D-01  0.148726D-01  0.118924D-04  0.241031D+00
     20 -0.411513D-02 -0.668093D-01  0.234457D-01  0.339613D-01  0.226525D+00
     21  0.908314D-03 -0.227762D-01 -0.354485D-01  0.199212D-01 -0.449946D-01
     22  0.229403D-02 -0.148742D-02  0.207664D-02 -0.668680D-01 -0.218114D-01
     23 -0.101887D-01 -0.213476D-02 -0.261033D-03 -0.225615D-02 -0.333522D-01
     24 -0.211003D-02 -0.383801D-02  0.686474D-02 -0.353720D-01 -0.861065D-02
     25 -0.550246D-01 -0.327571D-01  0.155322D-02  0.808840D-02 -0.767367D-02
     26  0.103603D-01 -0.398006D-01 -0.129003D-01 -0.773826D-02  0.768496D-03
     27  0.278306D-01  0.126743D-01 -0.331555D-01  0.361436D-03 -0.678028D-03
     28 -0.773953D-01  0.252438D-01 -0.273461D-01 -0.786501D-01 -0.217763D-03
     29  0.319354D-01 -0.565422D-01  0.150357D-01 -0.311013D-01 -0.563602D-01
     30  0.210199D-01 -0.167855D-01 -0.555906D-01  0.127700D-01  0.224469D-01
               21            22            23            24            25 
     21  0.262628D+00
     22 -0.535739D-02  0.111133D+00
     23  0.980617D-02  0.391122D-01  0.796447D-01
     24 -0.455486D-01  0.360746D-02 -0.202227D-01  0.751990D-01
     25  0.290022D-02 -0.481608D-04  0.111182D-03  0.117762D-03  0.149742D+00
     26  0.299486D-02  0.501967D-04 -0.153089D-03 -0.132236D-03  0.251569D-01
     27  0.456429D-02  0.859182D-04 -0.155897D-03  0.133496D-05 -0.848281D-02
     28 -0.325069D-01  0.968202D-03 -0.375602D-02  0.975244D-03 -0.284083D-01
     29 -0.477073D-02 -0.175098D-02  0.599931D-02 -0.139458D-02  0.119325D-01
     30 -0.647688D-01 -0.227293D-02 -0.328637D-02  0.932674D-02 -0.106666D-01
               26            27            28            29            30 
     26  0.217162D+00
     27  0.310366D-01  0.131470D+00
     28 -0.146309D-01  0.376730D-02  0.292129D+00
     29 -0.739627D-01  0.417885D-01 -0.203941D-02  0.263423D+00
     30 -0.330515D-02 -0.369746D-01  0.390453D-01 -0.254684D-01  0.318852D+00
 Leave Link  716 at Wed Feb 26 03:29:48 2025, MaxMem=  2097152000 cpu:               0.1 elap:               0.0
 (Enter /nvme/h/buildsets/eb_nepheli/software/Gaussian/16.C.01-AVX2/g16/l103.exe)

 GradGradGradGradGradGradGradGradGradGradGradGradGradGradGradGradGradGrad
 Berny optimization.
 Search for a local minimum.
 Step number   1 out of a maximum of    2
 All quantities printed in internal units (Hartrees-Bohrs-Radians)
 Second derivative matrix not updated -- first step.
 ITU=  0
     Eigenvalues ---    0.05528   0.08109   0.10482   0.11972   0.12052
     Eigenvalues ---    0.17725   0.19792   0.22115   0.22410   0.24171
     Eigenvalues ---    0.25337   0.27681   0.30289   0.31715   0.32342
     Eigenvalues ---    0.34396   0.36947   0.38096   0.39998   0.41136
     Eigenvalues ---    0.44223   0.47648   0.50201   0.53086
 Angle between quadratic step and forces=  43.29 degrees.
 Linear search not attempted -- first point.
 B after Tr=    -0.000000    0.000000   -0.000000
         Rot=    1.000000    0.000000   -0.000000    0.000000 Ang=   0.00 deg.
 Variable       Old X    -DE/DX   Delta X   Delta X   Delta X     New X
                                 (Linear)    (Quad)   (Total)
    X1       -3.38449  -0.00000   0.00000  -0.00005  -0.00005  -3.38453
    Y1       -1.42342   0.00003   0.00000   0.00010   0.00010  -1.42332
    Z1       -1.70594  -0.00003   0.00000  -0.00004  -0.00004  -1.70598
    X2        5.96003  -0.00001   0.00000  -0.00003  -0.00003   5.96000
    Y2        0.81980  -0.00001   0.00000  -0.00001  -0.00001   0.81979
    Z2       -1.87185   0.00002   0.00000  -0.00002  -0.00002  -1.87187
    X3       -3.65095   0.00002   0.00000   0.00006   0.00006  -3.65089
    Y3        3.87618  -0.00006   0.00000  -0.00013  -0.00013   3.87605
    Z3       -2.19982  -0.00004   0.00000  -0.00002  -0.00002  -2.19984
    X4        0.93640   0.00003   0.00000   0.00006   0.00006   0.93645
    Y4        1.63245   0.00000   0.00000   0.00008   0.00008   1.63253
    Z4       -2.65457  -0.00002   0.00000  -0.00001  -0.00001  -2.65458
    X5        2.12323   0.00001   0.00000  -0.00004  -0.00004   2.12319
    Y5       -3.39581  -0.00002   0.00000  -0.00000  -0.00000  -3.39581
    Z5       -1.59462   0.00004   0.00000   0.00003   0.00003  -1.59460
    X6       -1.27283  -0.00002   0.00000   0.00002   0.00002  -1.27281
    Y6        2.35539   0.00007   0.00000   0.00023   0.00023   2.35563
    Z6        2.39175   0.00005   0.00000   0.00015   0.00015   2.39190
    X7       -1.38584  -0.00001   0.00000  -0.00006  -0.00006  -1.38590
    Y7       -3.18587   0.00001   0.00000   0.00001   0.00001  -3.18586
    Z7        2.83358   0.00000   0.00000  -0.00001  -0.00001   2.83357
    X8       -6.02835  -0.00002   0.00000  -0.00007  -0.00007  -6.02843
    Y8       -4.88535  -0.00002   0.00000  -0.00032  -0.00032  -4.88567
    Z8        1.06804   0.00002   0.00000  -0.00000  -0.00000   1.06804
    X9        3.62164   0.00001   0.00000   0.00016   0.00016   3.62180
    Y9        4.64273  -0.00002   0.00000  -0.00003  -0.00003   4.64270
    Z9        0.98574  -0.00002   0.00000  -0.00000  -0.00000   0.98574
   X10        3.08116  -0.00002   0.00000  -0.00004  -0.00004   3.08112
   Y10       -0.43609   0.00002   0.00000   0.00006   0.00006  -0.43603
   Z10        2.74768  -0.00003   0.00000  -0.00007  -0.00007   2.74760
         Item               Value     Threshold  Converged?
 Maximum Force            0.000070     0.000450     YES
 RMS     Force            0.000027     0.000300     YES
 Maximum Displacement     0.000319     0.001800     YES
 RMS     Displacement     0.000096     0.001200     YES
 Predicted change in Energy=-2.824917D-08
 Optimization completed.
    -- Stationary point found.
 GradGradGradGradGradGradGradGradGradGradGradGradGradGradGradGradGradGrad

 Leave Link  103 at Wed Feb 26 03:29:48 2025, MaxMem=  2097152000 cpu:               0.2 elap:               0.1
 (Enter /nvme/h/buildsets/eb_nepheli/software/Gaussian/16.C.01-AVX2/g16/l9999.exe)
 Unable to Open any file for archive entry.
 1\1\GINC-NE08\Force\RwB97XD\def2SVP\Ag10\NPATSALIDIS\26-Feb-2025\0\\#p
  wb97xd/def2SVP scf(xqc) scfcyc=999 force\\Template file\\0,1\Ag,-1.79
 0993,-0.753243,-0.902743\Ag,3.153914,0.433819,-0.990539\Ag,-1.931999,2
 .051185,-1.164096\Ag,0.495519,0.863853,-1.404737\Ag,1.123563,-1.796984
 ,-0.843839\Ag,-0.673552,1.246419,1.265659\Ag,-0.733355,-1.68589,1.4994
 67\Ag,-3.190067,-2.585216,0.565185\Ag,1.916489,2.456827,0.521632\Ag,1.
 630481,-0.230768,1.454008\\Version=ES64L-G16RevC.01\State=1-A\HF=-1470
 .3007008\RMSD=5.103e-09\RMSF=2.701e-05\Dipole=0.2402311,0.5571757,-0.1
 87009\Quadrupole=2.9464281,1.7358371,-4.6822652,-5.3657973,0.950714,-1
 .0189874\PG=C01 [X(Ag10)]\\@
 The archive entry for this job was punched.


 ABOVE ALL I AM AN OPTIMIST FOR NUMBER THEORY,
 AND I HOLD THE HOPE THAT WE MAY NOT BE FAR FROM
 A TIME WHEN IRREFUTABLE ARITHMETIC WILL CELEBRATE
 ITS TRIUMPHS IN PHYSICS AND CHEMISTRY.
   -- HERMANN MINKOWSKI, 1905
 Job cpu time:       0 days  0 hours 21 minutes 27.0 seconds.
 Elapsed time:       0 days  0 hours  5 minutes 25.2 seconds.
 File lengths (MBytes):  RWF=     62 Int=      0 D2E=      0 Chk=      7 Scr=      1
 Normal termination of Gaussian 16 at Wed Feb 26 03:29:49 2025.
