 Entering Gaussian System, Link 0=g16
 Initial command:
 /nvme/h/buildsets/eb_nepheli/software/Gaussian/16.C.01-AVX2/g16/l1.exe "/onyx/data/simea/nikolas/postDoc/Active-Learning-Package/Ag-mainy/init_data/Ag12/Gau-86488.inp" -scrdir="/onyx/data/simea/nikolas/postDoc/Active-Learning-Package/Ag-mainy/init_data/Ag12/"
 Entering Link 1 = /nvme/h/buildsets/eb_nepheli/software/Gaussian/16.C.01-AVX2/g16/l1.exe PID=     86489.
  
 Copyright (c) 1988-2019, Gaussian, Inc.  All Rights Reserved.
  
 This is part of the Gaussian(R) 16 program.  It is based on
 the Gaussian(R) 09 system (copyright 2009, Gaussian, Inc.),
 the Gaussian(R) 03 system (copyright 2003, Gaussian, Inc.),
 the Gaussian(R) 98 system (copyright 1998, Gaussian, Inc.),
 the Gaussian(R) 94 system (copyright 1995, Gaussian, Inc.),
 the Gaussian 92(TM) system (copyright 1992, Gaussian, Inc.),
 the Gaussian 90(TM) system (copyright 1990, Gaussian, Inc.),
 the Gaussian 88(TM) system (copyright 1988, Gaussian, Inc.),
 the Gaussian 86(TM) system (copyright 1986, Carnegie Mellon
 University), and the Gaussian 82(TM) system (copyright 1983,
 Carnegie Mellon University). Gaussian is a federally registered
 trademark of Gaussian, Inc.
  
 This software contains proprietary and confidential information,
 including trade secrets, belonging to Gaussian, Inc.
  
 This software is provided under written license and may be
 used, copied, transmitted, or stored only in accord with that
 written license.
  
 The following legend is applicable only to US Government
 contracts under FAR:
  
                    RESTRICTED RIGHTS LEGEND
  
 Use, reproduction and disclosure by the US Government is
 subject to restrictions as set forth in subparagraphs (a)
 and (c) of the Commercial Computer Software - Restricted
 Rights clause in FAR 52.227-19.
  
 Gaussian, Inc.
 340 Quinnipiac St., Bldg. 40, Wallingford CT 06492
  
  
 ---------------------------------------------------------------
 Warning -- This program may not be used in any manner that
 competes with the business of Gaussian, Inc. or will provide
 assistance to any competitor of Gaussian, Inc.  The licensee
 of this program is prohibited from giving any competitor of
 Gaussian, Inc. access to this program.  By using this program,
 the user acknowledges that Gaussian, Inc. is engaged in the
 business of creating and licensing software in the field of
 computational chemistry and represents and warrants to the
 licensee that it is not a competitor of Gaussian, Inc. and that
 it will not use this program in any manner prohibited above.
 ---------------------------------------------------------------
  

 Cite this work as:
 Gaussian 16, Revision C.01,
 M. J. Frisch, G. W. Trucks, H. B. Schlegel, G. E. Scuseria, 
 M. A. Robb, J. R. Cheeseman, G. Scalmani, V. Barone, 
 G. A. Petersson, H. Nakatsuji, X. Li, M. Caricato, A. V. Marenich, 
 J. Bloino, B. G. Janesko, R. Gomperts, B. Mennucci, H. P. Hratchian, 
 J. V. Ortiz, A. F. Izmaylov, J. L. Sonnenberg, D. Williams-Young, 
 F. Ding, F. Lipparini, F. Egidi, J. Goings, B. Peng, A. Petrone, 
 T. Henderson, D. Ranasinghe, V. G. Zakrzewski, J. Gao, N. Rega, 
 G. Zheng, W. Liang, M. Hada, M. Ehara, K. Toyota, R. Fukuda, 
 J. Hasegawa, M. Ishida, T. Nakajima, Y. Honda, O. Kitao, H. Nakai, 
 T. Vreven, K. Throssell, J. A. Montgomery, Jr., J. E. Peralta, 
 F. Ogliaro, M. J. Bearpark, J. J. Heyd, E. N. Brothers, K. N. Kudin, 
 V. N. Staroverov, T. A. Keith, R. Kobayashi, J. Normand, 
 K. Raghavachari, A. P. Rendell, J. C. Burant, S. S. Iyengar, 
 J. Tomasi, M. Cossi, J. M. Millam, M. Klene, C. Adamo, R. Cammi, 
 J. W. Ochterski, R. L. Martin, K. Morokuma, O. Farkas, 
 J. B. Foresman, and D. J. Fox, Gaussian, Inc., Wallingford CT, 2019.
 
 ******************************************
 Gaussian 16:  ES64L-G16RevC.01  3-Jul-2019
                26-Feb-2025 
 ******************************************
 %nprocshared=4
 Will use up to    4 processors via shared memory.
 %mem=16000MB
 -------------------------------------------
 #p wb97xd/def2SVP scf(xqc) scfcyc=999 force
 -------------------------------------------
 1/10=7,30=1,38=1/1,3;
 2/12=2,17=6,18=5,40=1/2;
 3/5=43,7=101,11=2,25=1,30=1,71=1,74=-58/1,2,3;
 4//1;
 5/5=2,7=999,8=3,13=1,38=5/2,8;
 6/7=2,8=2,9=2,10=2,28=1/1;
 7/29=1/1,2,3,16;
 1/10=7,30=1/3;
 99//99;
 Leave Link    1 at Wed Feb 26 00:40:52 2025, MaxMem=  2097152000 cpu:               0.3 elap:               0.1
 (Enter /nvme/h/buildsets/eb_nepheli/software/Gaussian/16.C.01-AVX2/g16/l101.exe)
 -------------
 Template file
 -------------
 Symbolic Z-matrix:
 Charge =  0 Multiplicity = 1
 Ag                    2.9569   -2.30554   0.12325 
 Ag                    3.79225   0.32037  -0.36475 
 Ag                    0.29569  -1.82039  -0.77525 
 Ag                    2.21995   2.44685   0.50699 
 Ag                   -0.99617  -1.18201   1.76019 
 Ag                   -0.61452   1.48872   0.82243 
 Ag                    1.55793  -0.20962   1.30511 
 Ag                    1.0797    0.81853  -1.49565 
 Ag                   -2.73868   2.50033  -0.69827 
 Ag                   -3.32072   0.19055   0.71253 
 Ag                   -2.63818  -2.30341  -0.31564 
 Ag                   -1.59417   0.05563  -1.58095 
 
 ITRead=  0  0  0  0  0  0  0  0  0  0  0  0
 MicOpt= -1 -1 -1 -1 -1 -1 -1 -1 -1 -1 -1 -1
 NAtoms=     12 NQM=       12 NQMF=       0 NMMI=      0 NMMIF=      0
                NMic=       0 NMicF=      0.
                    Isotopes and Nuclear Properties:
 (Nuclear quadrupole moments (NQMom) in fm**2, nuclear magnetic moments (NMagM)
  in nuclear magnetons)

  Atom         1           2           3           4           5           6           7           8           9          10
 IAtWgt=         107         107         107         107         107         107         107         107         107         107
 AtmWgt= 106.9050900 106.9050900 106.9050900 106.9050900 106.9050900 106.9050900 106.9050900 106.9050900 106.9050900 106.9050900
 NucSpn=           1           1           1           1           1           1           1           1           1           1
 AtZEff=  -0.0000000  -0.0000000  -0.0000000  -0.0000000  -0.0000000  -0.0000000  -0.0000000  -0.0000000  -0.0000000  -0.0000000
 NQMom=    0.0000000   0.0000000   0.0000000   0.0000000   0.0000000   0.0000000   0.0000000   0.0000000   0.0000000   0.0000000
 NMagM=   -0.1135700  -0.1135700  -0.1135700  -0.1135700  -0.1135700  -0.1135700  -0.1135700  -0.1135700  -0.1135700  -0.1135700
 AtZNuc=  47.0000000  47.0000000  47.0000000  47.0000000  47.0000000  47.0000000  47.0000000  47.0000000  47.0000000  47.0000000

  Atom        11          12
 IAtWgt=         107         107
 AtmWgt= 106.9050900 106.9050900
 NucSpn=           1           1
 AtZEff=  -0.0000000  -0.0000000
 NQMom=    0.0000000   0.0000000
 NMagM=   -0.1135700  -0.1135700
 AtZNuc=  47.0000000  47.0000000
 Leave Link  101 at Wed Feb 26 00:40:52 2025, MaxMem=  2097152000 cpu:               0.2 elap:               0.1
 (Enter /nvme/h/buildsets/eb_nepheli/software/Gaussian/16.C.01-AVX2/g16/l103.exe)

 GradGradGradGradGradGradGradGradGradGradGradGradGradGradGradGradGradGrad
 Berny optimization.
 Initialization pass.
 Trust Radius=3.00D-01 FncErr=1.00D-07 GrdErr=1.00D-07 EigMax=2.50D+02 EigMin=1.00D-04
 Number of steps in this run=      2 maximum allowed number of steps=      2.
 GradGradGradGradGradGradGradGradGradGradGradGradGradGradGradGradGradGrad

 Leave Link  103 at Wed Feb 26 00:40:52 2025, MaxMem=  2097152000 cpu:               0.1 elap:               0.0
 (Enter /nvme/h/buildsets/eb_nepheli/software/Gaussian/16.C.01-AVX2/g16/l202.exe)
                          Input orientation:                          
 ---------------------------------------------------------------------
 Center     Atomic      Atomic             Coordinates (Angstroms)
 Number     Number       Type             X           Y           Z
 ---------------------------------------------------------------------
      1         47           0        2.956904   -2.305539    0.123254
      2         47           0        3.792252    0.320370   -0.364754
      3         47           0        0.295694   -1.820394   -0.775246
      4         47           0        2.219950    2.446848    0.506986
      5         47           0       -0.996171   -1.182011    1.760189
      6         47           0       -0.614517    1.488720    0.822433
      7         47           0        1.557934   -0.209624    1.305111
      8         47           0        1.079699    0.818525   -1.495646
      9         47           0       -2.738675    2.500334   -0.698267
     10         47           0       -3.320724    0.190546    0.712525
     11         47           0       -2.638176   -2.303405   -0.315635
     12         47           0       -1.594169    0.055631   -1.580949
 ---------------------------------------------------------------------
                    Distance matrix (angstroms):
                    1          2          3          4          5
     1  Ag   0.000000
     2  Ag   2.798456   0.000000
     3  Ag   2.850387   4.120351   0.000000
     4  Ag   4.824472   2.784596   4.853477   0.000000
     5  Ag   4.423649   5.449911   2.916313   5.008250   0.000000
     6  Ag   5.257404   4.711058   3.785670   3.008608   2.856195
     7  Ag   2.783301   2.839282   2.918170   2.851686   2.770575
     8  Ag   3.988046   2.980775   2.845617   2.821727   4.348775
     9  Ag   7.497395   6.893220   5.280342   5.103279   4.758150
    10  Ag   6.781319   7.195263   4.397252   5.986001   2.895697
    11  Ag   5.612268   6.945287   3.008677   6.844194   2.874500
    12  Ag   5.402934   5.528359   2.782123   4.962348   3.612833
                    6          7          8          9         10
     6  Ag   0.000000
     7  Ag   2.799445   0.000000
     8  Ag   2.948393   3.021595   0.000000
     9  Ag   2.801417   5.460608   4.247855   0.000000
    10  Ag   3.003480   4.930781   4.963275   2.768436   0.000000
    11  Ag   4.446415   4.961661   4.996145   4.820002   2.782584
    12  Ag   2.964744   4.281992   2.781880   2.839999   2.873885
                   11         12
    11  Ag   0.000000
    12  Ag   2.873329   0.000000
 Stoichiometry    Ag12
 Framework group  C1[X(Ag12)]
 Deg. of freedom    30
 Full point group                 C1      NOp   1
 Largest Abelian subgroup         C1      NOp   1
 Largest concise Abelian subgroup C1      NOp   1
                         Standard orientation:                         
 ---------------------------------------------------------------------
 Center     Atomic      Atomic             Coordinates (Angstroms)
 Number     Number       Type             X           Y           Z
 ---------------------------------------------------------------------
      1         47           0        3.061340   -2.167619   -0.060032
      2         47           0        3.765473    0.517804   -0.412248
      3         47           0        0.363146   -1.758183   -0.882719
      4         47           0        2.115235    2.515975    0.606573
      5         47           0       -0.905319   -1.324271    1.707184
      6         47           0       -0.665419    1.409799    0.916514
      7         47           0        1.591860   -0.209192    1.263581
      8         47           0        1.010725    0.950839   -1.465274
      9         47           0       -2.863887    2.404372   -0.506686
     10         47           0       -3.310951   -0.005645    0.780244
     11         47           0       -2.535658   -2.403259   -0.400072
     12         47           0       -1.626545    0.069380   -1.547064
 ---------------------------------------------------------------------
 Rotational constants (GHZ):           0.1102555           0.0643600           0.0514668
 Leave Link  202 at Wed Feb 26 00:40:52 2025, MaxMem=  2097152000 cpu:               0.0 elap:               0.0
 (Enter /nvme/h/buildsets/eb_nepheli/software/Gaussian/16.C.01-AVX2/g16/l301.exe)
 Standard basis: def2SVP (5D, 7F)
 Ernie: Thresh=  0.10000D-02 Tol=  0.10000D-05 Strict=F.
 There are   432 symmetry adapted cartesian basis functions of A   symmetry.
 There are   372 symmetry adapted basis functions of A   symmetry.
   372 basis functions,   780 primitive gaussians,   432 cartesian basis functions
   114 alpha electrons      114 beta electrons
       nuclear repulsion energy      3369.4202828641 Hartrees.
 IExCor= 4639 DFT=T Ex+Corr=wB97XD ExCW=0 ScaHFX=  1.000000
 ScaDFX=  1.000000  1.000000  1.000000  1.000000 ScalE2=  1.000000  1.000000
 IRadAn=      5 IRanWt=     -1 IRanGd=            0 ICorTp=0 IEmpDi=121
 HFx  wShort=  0.000000 wLong=  0.200000 cFull=  0.222036 cShort=  0.000000 cLong=  0.777964
 DFx  wShort=  0.000000 wLong=  0.200000 cFull=  0.000000 cShort=  0.000000 cLong=  1.000000
 NAtoms=   12 NActive=   12 NUniq=   12 SFac= 1.00D+00 NAtFMM=   60 NAOKFM=F Big=F
 Integral buffers will be    131072 words long.
 Raffenetti 2 integral format.
 Two-electron integral symmetry is turned on.
 R6Disp:  Grimme-D2 Dispersion energy=       -0.0403482969 Hartrees.
 Nuclear repulsion after empirical dispersion term =     3369.3799345673 Hartrees.
 Leave Link  301 at Wed Feb 26 00:40:53 2025, MaxMem=  2097152000 cpu:               0.1 elap:               0.1
 (Enter /nvme/h/buildsets/eb_nepheli/software/Gaussian/16.C.01-AVX2/g16/l302.exe)
 NPDir=0 NMtPBC=     1 NCelOv=     1 NCel=       1 NClECP=     1 NCelD=      1
         NCelK=      1 NCelE2=     1 NClLst=     1 CellRange=     0.0.
 One-electron integrals computed using PRISM.
 One-electron integral symmetry used in STVInt
   1 Symmetry operations used in ECPInt.
 ECPInt:  NShTT=    8778 NPrTT=   26286 LenC2=    8405 LenP2D=   20966.
 LDataN:  DoStor=T MaxTD1= 7 Len=  274
 NBasis=   372 RedAO= T EigKep=  9.44D-05  NBF=   372
 NBsUse=   372 1.00D-06 EigRej= -1.00D+00 NBFU=   372
 Precomputing XC quadrature grid using
 IXCGrd= 4 IRadAn=           5 IRanWt=          -1 IRanGd=           0 AccXCQ= 0.00D+00.
 Defaulting to unpruned grid for atomic number  47.
 Defaulting to unpruned grid for atomic number  47.
 Defaulting to unpruned grid for atomic number  47.
 Defaulting to unpruned grid for atomic number  47.
 Generated NRdTot=       0 NPtTot=           0 NUsed=           0 NTot=          32
 NSgBfM=   430   430   430   430   430 MxSgAt=    12 MxSgA2=    12.
 Leave Link  302 at Wed Feb 26 00:40:55 2025, MaxMem=  2097152000 cpu:               9.6 elap:               2.4
 (Enter /nvme/h/buildsets/eb_nepheli/software/Gaussian/16.C.01-AVX2/g16/l303.exe)
 DipDrv:  MaxL=1.
 Leave Link  303 at Wed Feb 26 00:40:56 2025, MaxMem=  2097152000 cpu:               0.1 elap:               0.1
 (Enter /nvme/h/buildsets/eb_nepheli/software/Gaussian/16.C.01-AVX2/g16/l401.exe)
 ExpMin= 3.75D-02 ExpMax= 9.09D+00 ExpMxC= 9.09D+00 IAcc=3 IRadAn=         5 AccDes= 0.00D+00
 Harris functional with IExCor= 4639 and IRadAn=       5 diagonalized for initial guess.
 HarFok:  IExCor= 4639 AccDes= 0.00D+00 IRadAn=         5 IDoV= 1 UseB2=F ITyADJ=14
 ICtDFT=  3500011 ScaDFX=  1.000000  1.000000  1.000000  1.000000
 Defaulting to unpruned grid for atomic number  47.
 FoFCou: FMM=F IPFlag=           0 FMFlag=      100000 FMFlg1=           0
         NFxFlg=           0 DoJE=T BraDBF=F KetDBF=T FulRan=T
         wScrn=  0.000000 ICntrl=       500 IOpCl=  0 I1Cent=   200000004 NGrid=           0
         NMat0=    1 NMatS0=      1 NMatT0=    0 NMatD0=    1 NMtDS0=    0 NMtDT0=    0
 Petite list used in FoFCou.
 Harris En= -1717.23819066110    
 JPrj=0 DoOrth=F DoCkMO=F.
 Leave Link  401 at Wed Feb 26 00:40:58 2025, MaxMem=  2097152000 cpu:              10.4 elap:               2.6
 (Enter /nvme/h/buildsets/eb_nepheli/software/Gaussian/16.C.01-AVX2/g16/l502.exe)
 Integral symmetry usage will be decided dynamically.
 Closed shell SCF:
 Using DIIS extrapolation, IDIIS=  1040.
 NGot=  2097152000 LenX=  2096772178 LenY=  2096585113
 Requested convergence on RMS density matrix=1.00D-08 within 128 cycles.
 Requested convergence on MAX density matrix=1.00D-06.
 Requested convergence on             energy=1.00D-06.
 No special actions if energy rises.
 Fock matrices will be formed incrementally for  20 cycles.

 Cycle   1  Pass 1  IDiag  1:
 FoFJK:  IHMeth= 1 ICntrl=       0 DoSepK=T KAlg= 0 I1Cent=           0 FoldK=F
 IRaf=         1 NMat=       1 IRICut=       1 DoRegI=T DoRafI=F ISym2E= 0 IDoP0=0 IntGTp=1.
 FoFCou: FMM=F IPFlag=           0 FMFlag=      100000 FMFlg1=           0
         NFxFlg=           0 DoJE=T BraDBF=F KetDBF=F FulRan=T
         wScrn=  0.000000 ICntrl=       500 IOpCl=  0 I1Cent=           0 NGrid=           0
         NMat0=    1 NMatS0=      1 NMatT0=    0 NMatD0=    1 NMtDS0=    0 NMtDT0=    0
 Symmetry not used in FoFCou.
 Defaulting to unpruned grid for atomic number  47.
 Defaulting to unpruned grid for atomic number  47.
 Defaulting to unpruned grid for atomic number  47.
 Defaulting to unpruned grid for atomic number  47.
 E= -1747.02222406965    
 DIIS: error= 1.37D-01 at cycle   1 NSaved=   1.
 NSaved= 1 IEnMin= 1 EnMin= -1747.02222406965     IErMin= 1 ErrMin= 1.37D-01
 ErrMax= 1.37D-01  0.00D+00 EMaxC= 1.00D-01 BMatC= 2.01D+01 BMatP= 2.01D+01
 IDIUse=3 WtCom= 0.00D+00 WtEn= 1.00D+00
 Coeff-Com:  0.100D+01
 Coeff-En:   0.100D+01
 Coeff:      0.100D+01
 Gap=     0.120 Goal=   None    Shift=    0.000
 GapD=    0.120 DampG=1.000 DampE=0.125 DampFc=0.1250 IDamp=-1.
 Damping current iteration by 1.25D-01
 RMSDP=3.98D-02 MaxDP=2.47D+00              OVMax= 6.83D-01

 Cycle   2  Pass 1  IDiag  1:
 RMSU=  4.83D-03    CP:  9.71D-01
 E= -1751.03841897542     Delta-E=       -4.016194905772 Rises=F Damp=T
 DIIS: error= 1.02D-01 at cycle   2 NSaved=   2.
 NSaved= 2 IEnMin= 2 EnMin= -1751.03841897542     IErMin= 2 ErrMin= 1.02D-01
 ErrMax= 1.02D-01  0.00D+00 EMaxC= 1.00D-01 BMatC= 1.11D+01 BMatP= 2.01D+01
 IDIUse=3 WtCom= 0.00D+00 WtEn= 1.00D+00
 Coeff-Com: -0.279D+01 0.379D+01
 Coeff-En:   0.000D+00 0.100D+01
 Coeff:      0.000D+00 0.100D+01
 Gap=     0.127 Goal=   None    Shift=    0.000
 RMSDP=3.13D-02 MaxDP=1.53D+00 DE=-4.02D+00 OVMax= 1.10D-01

 Cycle   3  Pass 1  IDiag  1:
 RMSU=  1.99D-02    CP:  6.95D-01  3.00D+00
 E= -1757.53173444870     Delta-E=       -6.493315473280 Rises=F Damp=F
 DIIS: error= 7.90D-02 at cycle   3 NSaved=   3.
 NSaved= 3 IEnMin= 3 EnMin= -1757.53173444870     IErMin= 3 ErrMin= 7.90D-02
 ErrMax= 7.90D-02  0.00D+00 EMaxC= 1.00D-01 BMatC= 7.05D+00 BMatP= 1.11D+01
 IDIUse=3 WtCom= 2.10D-01 WtEn= 7.90D-01
 EnCoef did   100 forward-backward iterations
 Coeff-Com: -0.274D+01 0.373D+01 0.120D-01
 Coeff-En:   0.278D+00 0.784D-02 0.714D+00
 Coeff:     -0.355D+00 0.789D+00 0.567D+00
 Gap=     0.200 Goal=   None    Shift=    0.000
 RMSDP=2.77D-02 MaxDP=2.93D+00 DE=-6.49D+00 OVMax= 4.87D-01

 Cycle   4  Pass 1  IDiag  1:
 RMSU=  1.77D-02    CP:  5.34D-01  2.10D+00  2.41D-01
 E= -1763.96986331103     Delta-E=       -6.438128862325 Rises=F Damp=F
 DIIS: error= 3.00D-02 at cycle   4 NSaved=   4.
 NSaved= 4 IEnMin= 4 EnMin= -1763.96986331103     IErMin= 4 ErrMin= 3.00D-02
 ErrMax= 3.00D-02  0.00D+00 EMaxC= 1.00D-01 BMatC= 6.33D-01 BMatP= 7.05D+00
 IDIUse=3 WtCom= 7.00D-01 WtEn= 3.00D-01
 Coeff-Com: -0.161D+01 0.218D+01 0.114D-01 0.424D+00
 Coeff-En:   0.000D+00 0.000D+00 0.000D+00 0.100D+01
 Coeff:     -0.113D+01 0.152D+01 0.798D-02 0.597D+00
 Gap=     0.209 Goal=   None    Shift=    0.000
 RMSDP=5.89D-03 MaxDP=2.39D-01 DE=-6.44D+00 OVMax= 2.45D-01

 Cycle   5  Pass 1  IDiag  1:
 RMSU=  4.92D-03    CP:  5.07D-01  2.70D+00  2.47D-01  9.51D-01
 E= -1763.98249186101     Delta-E=       -0.012628549978 Rises=F Damp=F
 DIIS: error= 1.85D-02 at cycle   5 NSaved=   5.
 NSaved= 5 IEnMin= 5 EnMin= -1763.98249186101     IErMin= 5 ErrMin= 1.85D-02
 ErrMax= 1.85D-02  0.00D+00 EMaxC= 1.00D-01 BMatC= 4.59D-01 BMatP= 6.33D-01
 IDIUse=3 WtCom= 8.15D-01 WtEn= 1.85D-01
 Coeff-Com: -0.578D+00 0.791D+00-0.899D-01 0.337D+00 0.541D+00
 Coeff-En:   0.000D+00 0.000D+00 0.000D+00 0.492D+00 0.508D+00
 Coeff:     -0.471D+00 0.645D+00-0.733D-01 0.365D+00 0.535D+00
 Gap=     0.167 Goal=   None    Shift=    0.000
 RMSDP=3.79D-03 MaxDP=2.18D-01 DE=-1.26D-02 OVMax= 1.12D-01

 Cycle   6  Pass 1  IDiag  1:
 RMSU=  2.35D-03    CP:  5.01D-01  2.18D+00  2.36D-01  9.96D-01  7.17D-01
 E= -1764.36148418467     Delta-E=       -0.378992323664 Rises=F Damp=F
 DIIS: error= 5.73D-03 at cycle   6 NSaved=   6.
 NSaved= 6 IEnMin= 6 EnMin= -1764.36148418467     IErMin= 6 ErrMin= 5.73D-03
 ErrMax= 5.73D-03  0.00D+00 EMaxC= 1.00D-01 BMatC= 2.88D-02 BMatP= 4.59D-01
 IDIUse=3 WtCom= 9.43D-01 WtEn= 5.73D-02
 Coeff-Com: -0.297D-01 0.483D-01-0.440D-01-0.426D-01-0.107D+00 0.118D+01
 Coeff-En:   0.000D+00 0.000D+00 0.000D+00 0.000D+00 0.000D+00 0.100D+01
 Coeff:     -0.280D-01 0.455D-01-0.415D-01-0.401D-01-0.101D+00 0.117D+01
 Gap=     0.169 Goal=   None    Shift=    0.000
 RMSDP=1.72D-03 MaxDP=6.31D-02 DE=-3.79D-01 OVMax= 3.43D-02

 Cycle   7  Pass 1  IDiag  1:
 RMSU=  7.20D-04    CP:  4.92D-01  2.05D+00  2.26D-01  9.93D-01  7.36D-01
                    CP:  1.58D+00
 E= -1764.38942902297     Delta-E=       -0.027944838300 Rises=F Damp=F
 DIIS: error= 7.43D-04 at cycle   7 NSaved=   7.
 NSaved= 7 IEnMin= 7 EnMin= -1764.38942902297     IErMin= 7 ErrMin= 7.43D-04
 ErrMax= 7.43D-04  0.00D+00 EMaxC= 1.00D-01 BMatC= 1.10D-03 BMatP= 2.88D-02
 IDIUse=3 WtCom= 9.93D-01 WtEn= 7.43D-03
 Coeff-Com: -0.189D-01 0.264D-01-0.287D-02-0.457D-01-0.131D+00 0.436D+00
 Coeff-Com:  0.737D+00
 Coeff-En:   0.000D+00 0.000D+00 0.000D+00 0.000D+00 0.000D+00 0.000D+00
 Coeff-En:   0.100D+01
 Coeff:     -0.188D-01 0.262D-01-0.285D-02-0.454D-01-0.130D+00 0.433D+00
 Coeff:      0.739D+00
 Gap=     0.171 Goal=   None    Shift=    0.000
 RMSDP=3.73D-04 MaxDP=1.57D-02 DE=-2.79D-02 OVMax= 1.14D-02

 Cycle   8  Pass 1  IDiag  1:
 RMSU=  2.98D-04    CP:  4.89D-01  2.06D+00  2.27D-01  9.94D-01  7.43D-01
                    CP:  1.63D+00  1.17D+00
 E= -1764.39045695823     Delta-E=       -0.001027935262 Rises=F Damp=F
 DIIS: error= 5.15D-04 at cycle   8 NSaved=   8.
 NSaved= 8 IEnMin= 8 EnMin= -1764.39045695823     IErMin= 8 ErrMin= 5.15D-04
 ErrMax= 5.15D-04  0.00D+00 EMaxC= 1.00D-01 BMatC= 3.19D-04 BMatP= 1.10D-03
 IDIUse=3 WtCom= 9.95D-01 WtEn= 5.15D-03
 Coeff-Com: -0.209D-02 0.211D-02 0.162D-02-0.747D-02-0.311D-01-0.643D-02
 Coeff-Com:  0.297D+00 0.746D+00
 Coeff-En:   0.000D+00 0.000D+00 0.000D+00 0.000D+00 0.000D+00 0.000D+00
 Coeff-En:   0.000D+00 0.100D+01
 Coeff:     -0.208D-02 0.210D-02 0.161D-02-0.743D-02-0.309D-01-0.640D-02
 Coeff:      0.296D+00 0.747D+00
 Gap=     0.171 Goal=   None    Shift=    0.000
 RMSDP=2.04D-04 MaxDP=9.41D-03 DE=-1.03D-03 OVMax= 6.99D-03

 Cycle   9  Pass 1  IDiag  1:
 RMSU=  1.08D-04    CP:  4.88D-01  2.05D+00  2.26D-01  9.93D-01  7.42D-01
                    CP:  1.66D+00  1.37D+00  1.09D+00
 E= -1764.39082631737     Delta-E=       -0.000369359137 Rises=F Damp=F
 DIIS: error= 1.97D-04 at cycle   9 NSaved=   9.
 NSaved= 9 IEnMin= 9 EnMin= -1764.39082631737     IErMin= 9 ErrMin= 1.97D-04
 ErrMax= 1.97D-04  0.00D+00 EMaxC= 1.00D-01 BMatC= 2.89D-05 BMatP= 3.19D-04
 IDIUse=3 WtCom= 9.98D-01 WtEn= 1.97D-03
 Coeff-Com:  0.403D-02-0.596D-02 0.311D-03 0.283D-02 0.640D-02-0.622D-01
 Coeff-Com:  0.239D-01 0.350D+00 0.681D+00
 Coeff-En:   0.000D+00 0.000D+00 0.000D+00 0.000D+00 0.000D+00 0.000D+00
 Coeff-En:   0.000D+00 0.000D+00 0.100D+01
 Coeff:      0.403D-02-0.595D-02 0.310D-03 0.282D-02 0.638D-02-0.621D-01
 Coeff:      0.239D-01 0.349D+00 0.682D+00
 Gap=     0.170 Goal=   None    Shift=    0.000
 RMSDP=8.59D-05 MaxDP=5.54D-03 DE=-3.69D-04 OVMax= 4.11D-03

 Cycle  10  Pass 1  IDiag  1:
 RMSU=  3.99D-05    CP:  4.87D-01  2.05D+00  2.26D-01  9.93D-01  7.42D-01
                    CP:  1.66D+00  1.45D+00  1.24D+00  1.19D+00
 E= -1764.39087301930     Delta-E=       -0.000046701933 Rises=F Damp=F
 DIIS: error= 1.13D-04 at cycle  10 NSaved=  10.
 NSaved=10 IEnMin=10 EnMin= -1764.39087301930     IErMin=10 ErrMin= 1.13D-04
 ErrMax= 1.13D-04  0.00D+00 EMaxC= 1.00D-01 BMatC= 9.45D-06 BMatP= 2.89D-05
 IDIUse=3 WtCom= 9.99D-01 WtEn= 1.13D-03
 Coeff-Com:  0.216D-03-0.463D-03-0.163D-03 0.181D-02 0.712D-02-0.796D-02
 Coeff-Com: -0.471D-01-0.144D-01 0.189D+00 0.872D+00
 Coeff-En:   0.000D+00 0.000D+00 0.000D+00 0.000D+00 0.000D+00 0.000D+00
 Coeff-En:   0.000D+00 0.000D+00 0.000D+00 0.100D+01
 Coeff:      0.216D-03-0.462D-03-0.163D-03 0.181D-02 0.711D-02-0.795D-02
 Coeff:     -0.470D-01-0.144D-01 0.188D+00 0.873D+00
 Gap=     0.171 Goal=   None    Shift=    0.000
 RMSDP=4.84D-05 MaxDP=3.95D-03 DE=-4.67D-05 OVMax= 2.73D-03

 Cycle  11  Pass 1  IDiag  1:
 RMSU=  1.77D-05    CP:  4.87D-01  2.05D+00  2.27D-01  9.93D-01  7.43D-01
                    CP:  1.65D+00  1.47D+00  1.31D+00  1.39D+00  1.25D+00
 E= -1764.39089116213     Delta-E=       -0.000018142833 Rises=F Damp=F
 DIIS: error= 7.30D-05 at cycle  11 NSaved=  11.
 NSaved=11 IEnMin=11 EnMin= -1764.39089116213     IErMin=11 ErrMin= 7.30D-05
 ErrMax= 7.30D-05  0.00D+00 EMaxC= 1.00D-01 BMatC= 7.88D-07 BMatP= 9.45D-06
 IDIUse=1 WtCom= 1.00D+00 WtEn= 0.00D+00
 Coeff-Com: -0.901D-03 0.123D-02-0.620D-04-0.568D-04 0.983D-03 0.110D-01
 Coeff-Com: -0.268D-01-0.827D-01-0.620D-01 0.298D+00 0.862D+00
 Coeff:     -0.901D-03 0.123D-02-0.620D-04-0.568D-04 0.983D-03 0.110D-01
 Coeff:     -0.268D-01-0.827D-01-0.620D-01 0.298D+00 0.862D+00
 Gap=     0.171 Goal=   None    Shift=    0.000
 RMSDP=2.72D-05 MaxDP=2.29D-03 DE=-1.81D-05 OVMax= 2.22D-03

 Cycle  12  Pass 1  IDiag  1:
 RMSU=  8.25D-06    CP:  4.87D-01  2.05D+00  2.27D-01  9.94D-01  7.44D-01
                    CP:  1.65D+00  1.48D+00  1.35D+00  1.50D+00  1.50D+00
                    CP:  1.57D+00
 E= -1764.39089560752     Delta-E=       -0.000004445387 Rises=F Damp=F
 DIIS: error= 3.57D-05 at cycle  12 NSaved=  12.
 NSaved=12 IEnMin=12 EnMin= -1764.39089560752     IErMin=12 ErrMin= 3.57D-05
 ErrMax= 3.57D-05  0.00D+00 EMaxC= 1.00D-01 BMatC= 4.11D-07 BMatP= 7.88D-07
 IDIUse=1 WtCom= 1.00D+00 WtEn= 0.00D+00
 Coeff-Com: -0.975D-04 0.179D-03 0.673D-05-0.339D-03-0.134D-02 0.299D-02
 Coeff-Com:  0.150D-02-0.185D-01-0.432D-01-0.101D+00 0.279D+00 0.880D+00
 Coeff:     -0.975D-04 0.179D-03 0.673D-05-0.339D-03-0.134D-02 0.299D-02
 Coeff:      0.150D-02-0.185D-01-0.432D-01-0.101D+00 0.279D+00 0.880D+00
 Gap=     0.171 Goal=   None    Shift=    0.000
 RMSDP=1.34D-05 MaxDP=7.99D-04 DE=-4.45D-06 OVMax= 1.36D-03

 Cycle  13  Pass 1  IDiag  1:
 RMSU=  4.57D-06    CP:  4.87D-01  2.05D+00  2.27D-01  9.94D-01  7.44D-01
                    CP:  1.65D+00  1.49D+00  1.36D+00  1.55D+00  1.61D+00
                    CP:  1.92D+00  1.45D+00
 E= -1764.39089727109     Delta-E=       -0.000001663570 Rises=F Damp=F
 DIIS: error= 2.17D-05 at cycle  13 NSaved=  13.
 NSaved=13 IEnMin=13 EnMin= -1764.39089727109     IErMin=13 ErrMin= 2.17D-05
 ErrMax= 2.17D-05  0.00D+00 EMaxC= 1.00D-01 BMatC= 5.34D-08 BMatP= 4.11D-07
 IDIUse=1 WtCom= 1.00D+00 WtEn= 0.00D+00
 Coeff-Com:  0.341D-04-0.289D-04 0.386D-04-0.401D-04-0.794D-03-0.209D-02
 Coeff-Com:  0.773D-02 0.163D-01 0.919D-04-0.112D+00-0.143D+00 0.216D+00
 Coeff-Com:  0.102D+01
 Coeff:      0.341D-04-0.289D-04 0.386D-04-0.401D-04-0.794D-03-0.209D-02
 Coeff:      0.773D-02 0.163D-01 0.919D-04-0.112D+00-0.143D+00 0.216D+00
 Coeff:      0.102D+01
 Gap=     0.171 Goal=   None    Shift=    0.000
 RMSDP=9.25D-06 MaxDP=5.45D-04 DE=-1.66D-06 OVMax= 1.06D-03

 Cycle  14  Pass 1  IDiag  1:
 RMSU=  1.72D-06    CP:  4.87D-01  2.05D+00  2.27D-01  9.94D-01  7.44D-01
                    CP:  1.65D+00  1.49D+00  1.36D+00  1.57D+00  1.68D+00
                    CP:  2.17D+00  1.98D+00  1.69D+00
 E= -1764.39089782990     Delta-E=       -0.000000558807 Rises=F Damp=F
 DIIS: error= 9.06D-06 at cycle  14 NSaved=  14.
 NSaved=14 IEnMin=14 EnMin= -1764.39089782990     IErMin=14 ErrMin= 9.06D-06
 ErrMax= 9.06D-06  0.00D+00 EMaxC= 1.00D-01 BMatC= 1.17D-08 BMatP= 5.34D-08
 IDIUse=1 WtCom= 1.00D+00 WtEn= 0.00D+00
 Coeff-Com:  0.501D-04-0.713D-04-0.394D-06 0.910D-04 0.181D-03-0.137D-02
 Coeff-Com:  0.169D-02 0.110D-01 0.121D-01-0.705D-02-0.117D+00-0.186D+00
 Coeff-Com:  0.279D+00 0.101D+01
 Coeff:      0.501D-04-0.713D-04-0.394D-06 0.910D-04 0.181D-03-0.137D-02
 Coeff:      0.169D-02 0.110D-01 0.121D-01-0.705D-02-0.117D+00-0.186D+00
 Coeff:      0.279D+00 0.101D+01
 Gap=     0.171 Goal=   None    Shift=    0.000
 RMSDP=5.16D-06 MaxDP=2.54D-04 DE=-5.59D-07 OVMax= 6.03D-04

 Cycle  15  Pass 1  IDiag  1:
 RMSU=  1.11D-06    CP:  4.87D-01  2.05D+00  2.27D-01  9.94D-01  7.44D-01
                    CP:  1.65D+00  1.50D+00  1.37D+00  1.58D+00  1.71D+00
                    CP:  2.30D+00  2.27D+00  2.21D+00  1.47D+00
 E= -1764.39089796828     Delta-E=       -0.000000138377 Rises=F Damp=F
 DIIS: error= 2.70D-06 at cycle  15 NSaved=  15.
 NSaved=15 IEnMin=15 EnMin= -1764.39089796828     IErMin=15 ErrMin= 2.70D-06
 ErrMax= 2.70D-06  0.00D+00 EMaxC= 1.00D-01 BMatC= 5.12D-09 BMatP= 1.17D-08
 IDIUse=1 WtCom= 1.00D+00 WtEn= 0.00D+00
 Coeff-Com:  0.446D-04-0.655D-04-0.106D-04 0.591D-04 0.267D-03-0.298D-03
 Coeff-Com: -0.621D-03 0.279D-02 0.717D-02 0.150D-01-0.298D-01-0.133D+00
 Coeff-Com: -0.677D-01 0.531D+00 0.675D+00
 Coeff:      0.446D-04-0.655D-04-0.106D-04 0.591D-04 0.267D-03-0.298D-03
 Coeff:     -0.621D-03 0.279D-02 0.717D-02 0.150D-01-0.298D-01-0.133D+00
 Coeff:     -0.677D-01 0.531D+00 0.675D+00
 Gap=     0.171 Goal=   None    Shift=    0.000
 RMSDP=1.63D-06 MaxDP=8.21D-05 DE=-1.38D-07 OVMax= 1.93D-04

 Cycle  16  Pass 1  IDiag  1:
 RMSU=  4.66D-07    CP:  4.87D-01  2.05D+00  2.27D-01  9.94D-01  7.44D-01
                    CP:  1.65D+00  1.50D+00  1.37D+00  1.59D+00  1.72D+00
                    CP:  2.33D+00  2.36D+00  2.36D+00  1.81D+00  1.21D+00
 E= -1764.39089799024     Delta-E=       -0.000000021962 Rises=F Damp=F
 DIIS: error= 2.23D-06 at cycle  16 NSaved=  16.
 NSaved=16 IEnMin=16 EnMin= -1764.39089799024     IErMin=16 ErrMin= 2.23D-06
 ErrMax= 2.23D-06  0.00D+00 EMaxC= 1.00D-01 BMatC= 1.10D-09 BMatP= 5.12D-09
 IDIUse=1 WtCom= 1.00D+00 WtEn= 0.00D+00
 Coeff-Com:  0.365D-05-0.610D-05-0.481D-07-0.840D-05 0.122D-04 0.362D-03
 Coeff-Com: -0.588D-03-0.257D-02-0.167D-02 0.268D-02 0.293D-01 0.249D-01
 Coeff-Com: -0.107D+00-0.142D+00 0.148D+00 0.105D+01
 Coeff:      0.365D-05-0.610D-05-0.481D-07-0.840D-05 0.122D-04 0.362D-03
 Coeff:     -0.588D-03-0.257D-02-0.167D-02 0.268D-02 0.293D-01 0.249D-01
 Coeff:     -0.107D+00-0.142D+00 0.148D+00 0.105D+01
 Gap=     0.171 Goal=   None    Shift=    0.000
 RMSDP=1.08D-06 MaxDP=5.99D-05 DE=-2.20D-08 OVMax= 1.25D-04

 Cycle  17  Pass 1  IDiag  1:
 RMSU=  2.39D-07    CP:  4.87D-01  2.05D+00  2.27D-01  9.94D-01  7.44D-01
                    CP:  1.65D+00  1.50D+00  1.37D+00  1.59D+00  1.72D+00
                    CP:  2.34D+00  2.39D+00  2.45D+00  2.00D+00  1.65D+00
                    CP:  1.54D+00
 E= -1764.39089799763     Delta-E=       -0.000000007394 Rises=F Damp=F
 DIIS: error= 1.40D-06 at cycle  17 NSaved=  17.
 NSaved=17 IEnMin=17 EnMin= -1764.39089799763     IErMin=17 ErrMin= 1.40D-06
 ErrMax= 1.40D-06  0.00D+00 EMaxC= 1.00D-01 BMatC= 1.93D-10 BMatP= 1.10D-09
 IDIUse=1 WtCom= 1.00D+00 WtEn= 0.00D+00
 Coeff-Com: -0.410D-05 0.600D-05 0.243D-05-0.162D-04-0.527D-04 0.191D-03
 Coeff-Com: -0.514D-04-0.149D-02-0.246D-02-0.263D-02 0.176D-01 0.399D-01
 Coeff-Com: -0.339D-01-0.158D+00-0.828D-01 0.392D+00 0.833D+00
 Coeff:     -0.410D-05 0.600D-05 0.243D-05-0.162D-04-0.527D-04 0.191D-03
 Coeff:     -0.514D-04-0.149D-02-0.246D-02-0.263D-02 0.176D-01 0.399D-01
 Coeff:     -0.339D-01-0.158D+00-0.828D-01 0.392D+00 0.833D+00
 Gap=     0.171 Goal=   None    Shift=    0.000
 RMSDP=4.32D-07 MaxDP=1.84D-05 DE=-7.39D-09 OVMax= 5.62D-05

 Cycle  18  Pass 1  IDiag  1:
 RMSU=  1.09D-07    CP:  4.87D-01  2.05D+00  2.27D-01  9.94D-01  7.44D-01
                    CP:  1.65D+00  1.50D+00  1.37D+00  1.59D+00  1.72D+00
                    CP:  2.35D+00  2.40D+00  2.48D+00  2.07D+00  1.82D+00
                    CP:  1.96D+00  1.58D+00
 E= -1764.39089799932     Delta-E=       -0.000000001687 Rises=F Damp=F
 DIIS: error= 7.97D-07 at cycle  18 NSaved=  18.
 NSaved=18 IEnMin=18 EnMin= -1764.39089799932     IErMin=18 ErrMin= 7.97D-07
 ErrMax= 7.97D-07  0.00D+00 EMaxC= 1.00D-01 BMatC= 5.66D-11 BMatP= 1.93D-10
 IDIUse=1 WtCom= 1.00D+00 WtEn= 0.00D+00
 Coeff-Com: -0.205D-05 0.308D-05 0.289D-07-0.128D-05-0.925D-05-0.778D-04
 Coeff-Com:  0.164D-03 0.504D-03-0.591D-04-0.664D-03-0.518D-02-0.747D-03
 Coeff-Com:  0.187D-01 0.242D-01-0.507D-01-0.238D+00 0.179D+00 0.107D+01
 Coeff:     -0.205D-05 0.308D-05 0.289D-07-0.128D-05-0.925D-05-0.778D-04
 Coeff:      0.164D-03 0.504D-03-0.591D-04-0.664D-03-0.518D-02-0.747D-03
 Coeff:      0.187D-01 0.242D-01-0.507D-01-0.238D+00 0.179D+00 0.107D+01
 Gap=     0.171 Goal=   None    Shift=    0.000
 RMSDP=2.52D-07 MaxDP=7.80D-06 DE=-1.69D-09 OVMax= 3.47D-05

 Cycle  19  Pass 1  IDiag  1:
 RMSU=  5.55D-08    CP:  4.87D-01  2.05D+00  2.27D-01  9.94D-01  7.44D-01
                    CP:  1.65D+00  1.50D+00  1.37D+00  1.59D+00  1.72D+00
                    CP:  2.35D+00  2.40D+00  2.48D+00  2.10D+00  1.92D+00
                    CP:  2.21D+00  2.24D+00  1.54D+00
 E= -1764.39089799993     Delta-E=       -0.000000000615 Rises=F Damp=F
 DIIS: error= 4.37D-07 at cycle  19 NSaved=  19.
 NSaved=19 IEnMin=19 EnMin= -1764.39089799993     IErMin=19 ErrMin= 4.37D-07
 ErrMax= 4.37D-07  0.00D+00 EMaxC= 1.00D-01 BMatC= 1.69D-11 BMatP= 5.66D-11
 IDIUse=1 WtCom= 1.00D+00 WtEn= 0.00D+00
 Coeff-Com: -0.761D-06 0.105D-05-0.952D-06 0.501D-05 0.144D-04-0.958D-04
 Coeff-Com:  0.912D-04 0.657D-03 0.830D-03 0.631D-03-0.753D-02-0.137D-01
 Coeff-Com:  0.181D-01 0.639D-01 0.554D-02-0.226D+00-0.215D+00 0.424D+00
 Coeff-Com:  0.950D+00
 Coeff:     -0.761D-06 0.105D-05-0.952D-06 0.501D-05 0.144D-04-0.958D-04
 Coeff:      0.912D-04 0.657D-03 0.830D-03 0.631D-03-0.753D-02-0.137D-01
 Coeff:      0.181D-01 0.639D-01 0.554D-02-0.226D+00-0.215D+00 0.424D+00
 Coeff:      0.950D+00
 Gap=     0.171 Goal=   None    Shift=    0.000
 RMSDP=1.61D-07 MaxDP=7.56D-06 DE=-6.15D-10 OVMax= 2.11D-05

 Cycle  20  Pass 1  IDiag  1:
 RMSU=  2.90D-08    CP:  4.87D-01  2.05D+00  2.27D-01  9.94D-01  7.44D-01
                    CP:  1.65D+00  1.50D+00  1.37D+00  1.59D+00  1.72D+00
                    CP:  2.35D+00  2.40D+00  2.49D+00  2.11D+00  1.98D+00
                    CP:  2.38D+00  2.65D+00  2.09D+00  1.50D+00
 E= -1764.39089800009     Delta-E=       -0.000000000160 Rises=F Damp=F
 DIIS: error= 1.55D-07 at cycle  20 NSaved=  20.
 NSaved=20 IEnMin=20 EnMin= -1764.39089800009     IErMin=20 ErrMin= 1.55D-07
 ErrMax= 1.55D-07  0.00D+00 EMaxC= 1.00D-01 BMatC= 3.19D-12 BMatP= 1.69D-11
 IDIUse=1 WtCom= 1.00D+00 WtEn= 0.00D+00
 Coeff-Com:  0.588D-07-0.119D-06-0.313D-06 0.228D-05 0.724D-05-0.158D-04
 Coeff-Com: -0.423D-05 0.859D-04 0.298D-03 0.388D-03-0.128D-02-0.466D-02
 Coeff-Com:  0.177D-02 0.160D-01 0.106D-01-0.239D-01-0.104D+00-0.719D-01
 Coeff-Com:  0.302D+00 0.875D+00
 Coeff:      0.588D-07-0.119D-06-0.313D-06 0.228D-05 0.724D-05-0.158D-04
 Coeff:     -0.423D-05 0.859D-04 0.298D-03 0.388D-03-0.128D-02-0.466D-02
 Coeff:      0.177D-02 0.160D-01 0.106D-01-0.239D-01-0.104D+00-0.719D-01
 Coeff:      0.302D+00 0.875D+00
 Gap=     0.171 Goal=   None    Shift=    0.000
 RMSDP=5.71D-08 MaxDP=1.96D-06 DE=-1.60D-10 OVMax= 7.36D-06

 Cycle  21  Pass 1  IDiag  1:
 Restarting incremental Fock formation.
 E= -1764.39089800034     Delta-E=       -0.000000000249 Rises=F Damp=F
 DIIS: error= 6.20D-08 at cycle  21 NSaved=  20.
 NSaved=20 IEnMin=20 EnMin= -1764.39089800034     IErMin=20 ErrMin= 6.20D-08
 ErrMax= 6.20D-08  0.00D+00 EMaxC= 1.00D-01 BMatC= 9.04D-13 BMatP= 3.19D-12
 IDIUse=1 WtCom= 1.00D+00 WtEn= 0.00D+00
 Coeff-Com: -0.372D-07 0.995D-07 0.181D-06 0.329D-06 0.136D-04-0.221D-04
 Coeff-Com: -0.113D-03-0.609D-04 0.283D-04 0.123D-02 0.112D-02-0.351D-02
 Coeff-Com: -0.769D-02 0.383D-02 0.434D-01 0.608D-03-0.142D+00-0.675D-01
 Coeff-Com:  0.409D+00 0.761D+00
 Coeff:     -0.372D-07 0.995D-07 0.181D-06 0.329D-06 0.136D-04-0.221D-04
 Coeff:     -0.113D-03-0.609D-04 0.283D-04 0.123D-02 0.112D-02-0.351D-02
 Coeff:     -0.769D-02 0.383D-02 0.434D-01 0.608D-03-0.142D+00-0.675D-01
 Coeff:      0.409D+00 0.761D+00
 Gap=     0.171 Goal=   None    Shift=    0.000
 RMSDP=2.43D-08 MaxDP=9.70D-07 DE=-2.49D-10 OVMax= 2.75D-06

 Cycle  22  Pass 1  IDiag  1:
 RMSU=  2.43D-08    CP:  1.00D+00
 E= -1764.39089800038     Delta-E=       -0.000000000038 Rises=F Damp=F
 DIIS: error= 2.57D-08 at cycle  22 NSaved=  20.
 NSaved=20 IEnMin=20 EnMin= -1764.39089800038     IErMin=20 ErrMin= 2.57D-08
 ErrMax= 2.57D-08  0.00D+00 EMaxC= 1.00D-01 BMatC= 1.84D-13 BMatP= 9.04D-13
 IDIUse=1 WtCom= 1.00D+00 WtEn= 0.00D+00
 Coeff-Com:  0.117D-06-0.513D-06-0.152D-05 0.849D-05-0.657D-05-0.604D-04
 Coeff-Com: -0.113D-03-0.765D-04 0.766D-03 0.160D-02-0.171D-02-0.665D-02
 Coeff-Com: -0.123D-02 0.203D-01 0.288D-01-0.335D-01-0.959D-01-0.905D-01
 Coeff-Com:  0.266D+00 0.913D+00
 Coeff:      0.117D-06-0.513D-06-0.152D-05 0.849D-05-0.657D-05-0.604D-04
 Coeff:     -0.113D-03-0.765D-04 0.766D-03 0.160D-02-0.171D-02-0.665D-02
 Coeff:     -0.123D-02 0.203D-01 0.288D-01-0.335D-01-0.959D-01-0.905D-01
 Coeff:      0.266D+00 0.913D+00
 Gap=     0.171 Goal=   None    Shift=    0.000
 RMSDP=1.33D-08 MaxDP=5.90D-07 DE=-3.82D-11 OVMax= 1.22D-06

 Cycle  23  Pass 1  IDiag  1:
 RMSU=  6.74D-09    CP:  1.00D+00  1.47D+00
 E= -1764.39089800034     Delta-E=        0.000000000038 Rises=F Damp=F
 DIIS: error= 1.05D-08 at cycle  23 NSaved=  20.
 NSaved=20 IEnMin=19 EnMin= -1764.39089800038     IErMin=20 ErrMin= 1.05D-08
 ErrMax= 1.05D-08  0.00D+00 EMaxC= 1.00D-01 BMatC= 3.17D-14 BMatP= 1.84D-13
 IDIUse=1 WtCom= 1.00D+00 WtEn= 0.00D+00
 Coeff-Com: -0.160D-06-0.296D-06-0.173D-05 0.387D-05 0.137D-04-0.484D-05
 Coeff-Com: -0.332D-04-0.117D-03 0.614D-04 0.385D-03 0.291D-03-0.821D-03
 Coeff-Com: -0.463D-02 0.431D-02 0.200D-01 0.194D-02-0.931D-01-0.122D+00
 Coeff-Com:  0.194D+00 0.999D+00
 Coeff:     -0.160D-06-0.296D-06-0.173D-05 0.387D-05 0.137D-04-0.484D-05
 Coeff:     -0.332D-04-0.117D-03 0.614D-04 0.385D-03 0.291D-03-0.821D-03
 Coeff:     -0.463D-02 0.431D-02 0.200D-01 0.194D-02-0.931D-01-0.122D+00
 Coeff:      0.194D+00 0.999D+00
 Gap=     0.171 Goal=   None    Shift=    0.000
 RMSDP=6.35D-09 MaxDP=3.13D-07 DE= 3.82D-11 OVMax= 5.18D-07

 SCF Done:  E(RwB97XD) =  -1764.39089800     A.U. after   23 cycles
            NFock= 23  Conv=0.64D-08     -V/T= 3.6224
 KE= 6.728076704435D+02 PE=-1.054403927177D+04 EE= 4.737460768754D+03
 Leave Link  502 at Wed Feb 26 00:49:43 2025, MaxMem=  2097152000 cpu:            2072.1 elap:             524.1
 (Enter /nvme/h/buildsets/eb_nepheli/software/Gaussian/16.C.01-AVX2/g16/l508.exe)
 QCSCF skips out because SCF is already converged.
 Leave Link  508 at Wed Feb 26 00:49:43 2025, MaxMem=  2097152000 cpu:               0.0 elap:               0.0
 (Enter /nvme/h/buildsets/eb_nepheli/software/Gaussian/16.C.01-AVX2/g16/l601.exe)
 Copying SCF densities to generalized density rwf, IOpCl= 0 IROHF=0.

 **********************************************************************

            Population analysis using the SCF Density.

 **********************************************************************

 Orbital symmetries:
       Occupied  (A) (A) (A) (A) (A) (A) (A) (A) (A) (A) (A) (A)
                 (A) (A) (A) (A) (A) (A) (A) (A) (A) (A) (A) (A)
                 (A) (A) (A) (A) (A) (A) (A) (A) (A) (A) (A) (A)
                 (A) (A) (A) (A) (A) (A) (A) (A) (A) (A) (A) (A)
                 (A) (A) (A) (A) (A) (A) (A) (A) (A) (A) (A) (A)
                 (A) (A) (A) (A) (A) (A) (A) (A) (A) (A) (A) (A)
                 (A) (A) (A) (A) (A) (A) (A) (A) (A) (A) (A) (A)
                 (A) (A) (A) (A) (A) (A) (A) (A) (A) (A) (A) (A)
                 (A) (A) (A) (A) (A) (A) (A) (A) (A) (A) (A) (A)
                 (A) (A) (A) (A) (A) (A)
       Virtual   (A) (A) (A) (A) (A) (A) (A) (A) (A) (A) (A) (A)
                 (A) (A) (A) (A) (A) (A) (A) (A) (A) (A) (A) (A)
                 (A) (A) (A) (A) (A) (A) (A) (A) (A) (A) (A) (A)
                 (A) (A) (A) (A) (A) (A) (A) (A) (A) (A) (A) (A)
                 (A) (A) (A) (A) (A) (A) (A) (A) (A) (A) (A) (A)
                 (A) (A) (A) (A) (A) (A) (A) (A) (A) (A) (A) (A)
                 (A) (A) (A) (A) (A) (A) (A) (A) (A) (A) (A) (A)
                 (A) (A) (A) (A) (A) (A) (A) (A) (A) (A) (A) (A)
                 (A) (A) (A) (A) (A) (A) (A) (A) (A) (A) (A) (A)
                 (A) (A) (A) (A) (A) (A) (A) (A) (A) (A) (A) (A)
                 (A) (A) (A) (A) (A) (A) (A) (A) (A) (A) (A) (A)
                 (A) (A) (A) (A) (A) (A) (A) (A) (A) (A) (A) (A)
                 (A) (A) (A) (A) (A) (A) (A) (A) (A) (A) (A) (A)
                 (A) (A) (A) (A) (A) (A) (A) (A) (A) (A) (A) (A)
                 (A) (A) (A) (A) (A) (A) (A) (A) (A) (A) (A) (A)
                 (A) (A) (A) (A) (A) (A) (A) (A) (A) (A) (A) (A)
                 (A) (A) (A) (A) (A) (A) (A) (A) (A) (A) (A) (A)
                 (A) (A) (A) (A) (A) (A) (A) (A) (A) (A) (A) (A)
                 (A) (A) (A) (A) (A) (A) (A) (A) (A) (A) (A) (A)
                 (A) (A) (A) (A) (A) (A) (A) (A) (A) (A) (A) (A)
                 (A) (A) (A) (A) (A) (A) (A) (A) (A) (A) (A) (A)
                 (A) (A) (A) (A) (A) (A)
 The electronic state is 1-A.
 Alpha  occ. eigenvalues --   -3.84959  -3.84502  -3.84435  -3.84423  -3.84392
 Alpha  occ. eigenvalues --   -3.84331  -3.84302  -3.84253  -3.84110  -3.84003
 Alpha  occ. eigenvalues --   -3.83847  -3.83609  -2.43168  -2.43138  -2.42996
 Alpha  occ. eigenvalues --   -2.42829  -2.42772  -2.42706  -2.42687  -2.42657
 Alpha  occ. eigenvalues --   -2.42630  -2.42622  -2.42604  -2.42568  -2.42542
 Alpha  occ. eigenvalues --   -2.42517  -2.42500  -2.42470  -2.42430  -2.42419
 Alpha  occ. eigenvalues --   -2.42403  -2.42390  -2.42378  -2.42363  -2.42339
 Alpha  occ. eigenvalues --   -2.42335  -2.42276  -2.42221  -2.42200  -2.42173
 Alpha  occ. eigenvalues --   -2.42146  -2.42141  -2.42035  -2.41944  -2.41896
 Alpha  occ. eigenvalues --   -2.41850  -2.41746  -2.41641  -0.46800  -0.46651
 Alpha  occ. eigenvalues --   -0.46431  -0.46255  -0.46090  -0.45998  -0.45672
 Alpha  occ. eigenvalues --   -0.45603  -0.45414  -0.45279  -0.45022  -0.44939
 Alpha  occ. eigenvalues --   -0.44731  -0.44473  -0.44261  -0.44126  -0.43959
 Alpha  occ. eigenvalues --   -0.43844  -0.43755  -0.43302  -0.43131  -0.42908
 Alpha  occ. eigenvalues --   -0.42738  -0.42592  -0.42451  -0.42381  -0.42204
 Alpha  occ. eigenvalues --   -0.42004  -0.41614  -0.41559  -0.41419  -0.41143
 Alpha  occ. eigenvalues --   -0.41053  -0.40969  -0.40814  -0.40629  -0.40483
 Alpha  occ. eigenvalues --   -0.40321  -0.40181  -0.40091  -0.40012  -0.39881
 Alpha  occ. eigenvalues --   -0.39813  -0.39781  -0.39668  -0.39567  -0.39408
 Alpha  occ. eigenvalues --   -0.39354  -0.39219  -0.39105  -0.39017  -0.38846
 Alpha  occ. eigenvalues --   -0.38713  -0.38647  -0.38550  -0.38428  -0.38268
 Alpha  occ. eigenvalues --   -0.38172  -0.37924  -0.37729  -0.37109  -0.33558
 Alpha  occ. eigenvalues --   -0.28252  -0.24196  -0.23488  -0.22573
 Alpha virt. eigenvalues --   -0.05516  -0.04225  -0.03127  -0.02508  -0.02120
 Alpha virt. eigenvalues --   -0.00922  -0.00183   0.01998   0.03083   0.04246
 Alpha virt. eigenvalues --    0.04631   0.05008   0.05979   0.06640   0.06952
 Alpha virt. eigenvalues --    0.07639   0.08457   0.10148   0.10329   0.10873
 Alpha virt. eigenvalues --    0.11577   0.12373   0.12702   0.13088   0.13588
 Alpha virt. eigenvalues --    0.14100   0.14216   0.14452   0.15267   0.15553
 Alpha virt. eigenvalues --    0.15893   0.16198   0.16597   0.16979   0.17427
 Alpha virt. eigenvalues --    0.18086   0.19324   0.19652   0.20517   0.20701
 Alpha virt. eigenvalues --    0.21182   0.21919   0.24854   0.25809   0.26202
 Alpha virt. eigenvalues --    0.26521   0.26928   0.27630   0.27816   0.28127
 Alpha virt. eigenvalues --    0.28826   0.29360   0.30441   0.31504   0.31692
 Alpha virt. eigenvalues --    0.32405   0.32764   0.33073   0.33331   0.34208
 Alpha virt. eigenvalues --    0.34496   0.35017   0.35922   0.36629   0.37647
 Alpha virt. eigenvalues --    0.38195   0.38925   0.39584   0.40401   0.41269
 Alpha virt. eigenvalues --    0.41804   0.42523   0.43523   0.44214   0.44799
 Alpha virt. eigenvalues --    0.45380   0.45884   0.47261   0.48456   0.49641
 Alpha virt. eigenvalues --    0.50361   0.51611   0.51918   0.53003   0.53905
 Alpha virt. eigenvalues --    0.54418   0.55252   0.55745   0.56580   0.58307
 Alpha virt. eigenvalues --    0.59263   0.59731   0.60290   0.60710   0.62457
 Alpha virt. eigenvalues --    0.62862   0.63443   0.64906   0.66279   0.67467
 Alpha virt. eigenvalues --    0.67974   0.69014   0.69511   0.69646   0.70114
 Alpha virt. eigenvalues --    0.71230   0.72279   0.72773   0.73207   0.73585
 Alpha virt. eigenvalues --    0.73858   0.74729   0.75878   0.76692   0.77093
 Alpha virt. eigenvalues --    0.78312   0.78518   0.79157   0.79318   0.81041
 Alpha virt. eigenvalues --    0.81424   0.82553   0.83085   0.83375   0.84716
 Alpha virt. eigenvalues --    0.85214   0.85634   0.86182   0.87222   0.87654
 Alpha virt. eigenvalues --    0.88709   0.89660   0.91295   0.91885   0.92977
 Alpha virt. eigenvalues --    0.93218   0.94989   0.96394   0.97328   0.98851
 Alpha virt. eigenvalues --    1.00199   1.01075   1.01283   1.02904   1.03206
 Alpha virt. eigenvalues --    1.04707   1.05238   1.07103   1.09085   1.10520
 Alpha virt. eigenvalues --    2.17255   2.23181   2.26993   2.27271   2.30437
 Alpha virt. eigenvalues --    2.33567   2.39708   2.40024   2.44695   2.45439
 Alpha virt. eigenvalues --    2.46717   2.51390   2.67585   2.67593   2.67679
 Alpha virt. eigenvalues --    2.67712   2.67715   2.67738   2.67766   2.67782
 Alpha virt. eigenvalues --    2.67793   2.67805   2.67823   2.67843   2.67866
 Alpha virt. eigenvalues --    2.67885   2.67897   2.67912   2.67925   2.67954
 Alpha virt. eigenvalues --    2.67981   2.68002   2.68016   2.68043   2.68062
 Alpha virt. eigenvalues --    2.68071   2.68104   2.68107   2.68171   2.68182
 Alpha virt. eigenvalues --    2.68199   2.68228   2.68267   2.68292   2.68355
 Alpha virt. eigenvalues --    2.68374   2.68401   2.68414   2.68469   2.68499
 Alpha virt. eigenvalues --    2.68561   2.68573   2.68591   2.68620   2.68629
 Alpha virt. eigenvalues --    2.68690   2.68726   2.68770   2.68805   2.68856
 Alpha virt. eigenvalues --    2.68878   2.68960   2.69019   2.69065   2.69140
 Alpha virt. eigenvalues --    2.69212   2.69375   2.69487   2.69542   2.69700
 Alpha virt. eigenvalues --    2.69819   2.69837   2.69894   2.69989   2.70022
 Alpha virt. eigenvalues --    2.70090   2.70120   2.70222   2.70299   2.70483
 Alpha virt. eigenvalues --    2.70593   2.70661   2.70696   2.70905   2.70935
 Alpha virt. eigenvalues --    2.71070   2.71436   2.71471   2.72283   2.72437
 Alpha virt. eigenvalues --    2.72623   2.73137   2.75380   2.76581   2.77193
 Alpha virt. eigenvalues --    2.78498  54.33706  54.37551  54.39721  54.39975
 Alpha virt. eigenvalues --   54.43160  54.45694  54.49588  54.50604  54.54846
 Alpha virt. eigenvalues --   54.56210  54.57604  54.61098
          Condensed to atoms (all electrons):
               1          2          3          4          5          6
     1  Ag  18.435568   0.086411   0.004067   0.026338   0.044168  -0.041382
     2  Ag   0.086411  18.381579   0.092382   0.081243  -0.027837   0.033888
     3  Ag   0.004067   0.092382  19.084533  -0.014698  -0.133201   0.364358
     4  Ag   0.026338   0.081243  -0.014698  18.381140   0.002544   0.068770
     5  Ag   0.044168  -0.027837  -0.133201   0.002544  18.647972  -0.082140
     6  Ag  -0.041382   0.033888   0.364358   0.068770  -0.082140  19.355826
     7  Ag   0.068908   0.114084   0.165787   0.095959  -0.066301   0.189140
     8  Ag   0.109228   0.018836  -0.012483   0.093481   0.103181  -0.082105
     9  Ag  -0.000547   0.000209  -0.013806   0.003467   0.022438   0.098262
    10  Ag   0.004773  -0.005780  -0.047242  -0.008096   0.169323  -0.035009
    11  Ag  -0.002395   0.000789   0.024954  -0.002360   0.123946  -0.036671
    12  Ag   0.001133  -0.017865   0.040161  -0.014475   0.040115  -0.074395
               7          8          9         10         11         12
     1  Ag   0.068908   0.109228  -0.000547   0.004773  -0.002395   0.001133
     2  Ag   0.114084   0.018836   0.000209  -0.005780   0.000789  -0.017865
     3  Ag   0.165787  -0.012483  -0.013806  -0.047242   0.024954   0.040161
     4  Ag   0.095959   0.093481   0.003467  -0.008096  -0.002360  -0.014475
     5  Ag  -0.066301   0.103181   0.022438   0.169323   0.123946   0.040115
     6  Ag   0.189140  -0.082105   0.098262  -0.035009  -0.036671  -0.074395
     7  Ag  18.659625  -0.055508  -0.005680  -0.018745  -0.001015  -0.016574
     8  Ag  -0.055508  18.875490   0.002513   0.021914   0.015349   0.117319
     9  Ag  -0.005680   0.002513  18.434175   0.119274   0.019529   0.049511
    10  Ag  -0.018745   0.021914   0.119274  18.450611   0.110764   0.075718
    11  Ag  -0.001015   0.015349   0.019529   0.110764  18.422038   0.112706
    12  Ag  -0.016574   0.117319   0.049511   0.075718   0.112706  18.630184
 Mulliken charges:
               1
     1  Ag   0.263730
     2  Ag   0.242059
     3  Ag  -0.554810
     4  Ag   0.286687
     5  Ag   0.155793
     6  Ag  -0.758542
     7  Ag  -0.129679
     8  Ag  -0.207215
     9  Ag   0.270655
    10  Ag   0.162497
    11  Ag   0.212366
    12  Ag   0.056460
 Sum of Mulliken charges =  -0.00000
 Mulliken charges with hydrogens summed into heavy atoms:
               1
     1  Ag   0.263730
     2  Ag   0.242059
     3  Ag  -0.554810
     4  Ag   0.286687
     5  Ag   0.155793
     6  Ag  -0.758542
     7  Ag  -0.129679
     8  Ag  -0.207215
     9  Ag   0.270655
    10  Ag   0.162497
    11  Ag   0.212366
    12  Ag   0.056460
 Electronic spatial extent (au):  <R**2>=           7575.6213
 Charge=             -0.0000 electrons
 Dipole moment (field-independent basis, Debye):
    X=              0.0094    Y=              0.7075    Z=             -0.2701  Tot=              0.7574
 Quadrupole moment (field-independent basis, Debye-Ang):
   XX=           -229.4176   YY=           -221.9583   ZZ=           -238.7009
   XY=             -2.1703   XZ=             -0.5248   YZ=              0.0837
 Traceless Quadrupole moment (field-independent basis, Debye-Ang):
   XX=              0.6080   YY=              8.0673   ZZ=             -8.6753
   XY=             -2.1703   XZ=             -0.5248   YZ=              0.0837
 Octapole moment (field-independent basis, Debye-Ang**2):
  XXX=              6.4617  YYY=             10.0650  ZZZ=              0.7419  XYY=             -4.4569
  XXY=              7.0688  XXZ=             -7.9056  XZZ=             -1.5835  YZZ=              2.6540
  YYZ=             -2.8977  XYZ=              7.2282
 Hexadecapole moment (field-independent basis, Debye-Ang**3):
 XXXX=          -7413.6177 YYYY=          -3662.0911 ZZZZ=          -1793.3512 XXXY=            -70.8883
 XXXZ=            -36.2994 YYYX=            -39.0009 YYYZ=             27.8527 ZZZX=             -5.5563
 ZZZY=            -20.0802 XXYY=          -1796.8021 XXZZ=          -1532.4383 YYZZ=           -932.0725
 XXYZ=             -2.2942 YYXZ=             39.1249 ZZXY=              7.4907
 N-N= 3.369379934567D+03 E-N=-1.054403927439D+04  KE= 6.728076704435D+02
 No NMR shielding tensors so no spin-rotation constants.
 Leave Link  601 at Wed Feb 26 00:49:43 2025, MaxMem=  2097152000 cpu:               0.8 elap:               0.3
 (Enter /nvme/h/buildsets/eb_nepheli/software/Gaussian/16.C.01-AVX2/g16/l701.exe)
 ... and contract with generalized density number  0.
 Compute integral first derivatives.
 R6Disp: Adding Grimme-D2 dispersion energy 1st derivatives to the gradient.
   1 Symmetry operations used in ECPInt.
 ECPInt:  NShTT=    8778 NPrTT=   26286 LenC2=    8405 LenP2D=   20966.
 LDataN:  DoStor=T MaxTD1= 8 Len=  415
 Leave Link  701 at Wed Feb 26 00:49:53 2025, MaxMem=  2097152000 cpu:              36.8 elap:               9.3
 (Enter /nvme/h/buildsets/eb_nepheli/software/Gaussian/16.C.01-AVX2/g16/l702.exe)
 L702 exits ... SP integral derivatives will be done elsewhere.
 Leave Link  702 at Wed Feb 26 00:49:53 2025, MaxMem=  2097152000 cpu:               0.0 elap:               0.0
 (Enter /nvme/h/buildsets/eb_nepheli/software/Gaussian/16.C.01-AVX2/g16/l703.exe)
 Integral derivatives from FoFJK, PRISM(SPDF).
 Compute integral first derivatives, UseDBF=F ICtDFT=           0.
 Calling FoFJK, ICntrl=      2127 FMM=F ISym2X=0 I1Cent= 0 IOpClX= 0 NMat=1 NMatS=1 NMatT=0.
 FoFJK:  IHMeth= 1 ICntrl=    2127 DoSepK=T KAlg= 0 I1Cent=           0 FoldK=F
 IRaf=         1 NMat=       1 IRICut=       1 DoRegI=T DoRafI=F ISym2E= 0 IDoP0=0 IntGTp=1.
 FoFCou: FMM=F IPFlag=           0 FMFlag=      100000 FMFlg1=         800
         NFxFlg=           0 DoJE=F BraDBF=F KetDBF=F FulRan=T
         wScrn=  0.000000 ICntrl=      2527 IOpCl=  0 I1Cent=           0 NGrid=           0
         NMat0=    1 NMatS0=      1 NMatT0=    0 NMatD0=    1 NMtDS0=    0 NMtDT0=    0
 Symmetry not used in FoFCou.
 Defaulting to unpruned grid for atomic number  47.
 Defaulting to unpruned grid for atomic number  47.
 Defaulting to unpruned grid for atomic number  47.
 Defaulting to unpruned grid for atomic number  47.
 Leave Link  703 at Wed Feb 26 00:52:31 2025, MaxMem=  2097152000 cpu:             623.4 elap:             157.8
 (Enter /nvme/h/buildsets/eb_nepheli/software/Gaussian/16.C.01-AVX2/g16/l716.exe)
 Dipole        = 3.69933101D-03 2.78362737D-01-1.06251970D-01
 ***** Axes restored to original set *****
 -------------------------------------------------------------------
 Center     Atomic                   Forces (Hartrees/Bohr)
 Number     Number              X              Y              Z
 -------------------------------------------------------------------
      1       47           0.000024291    0.000006681   -0.000025232
      2       47          -0.000036935   -0.000054074   -0.000004885
      3       47           0.000020645   -0.000004149    0.000015671
      4       47           0.000006383    0.000060887   -0.000018463
      5       47           0.000034181   -0.000027301   -0.000033796
      6       47           0.000030854    0.000092637    0.000107721
      7       47          -0.000061833   -0.000032602   -0.000014900
      8       47          -0.000003975   -0.000065469   -0.000000321
      9       47          -0.000006619   -0.000043581   -0.000024651
     10       47           0.000005257    0.000020016    0.000004761
     11       47          -0.000020096   -0.000003267    0.000016898
     12       47           0.000007849    0.000050222   -0.000022803
 -------------------------------------------------------------------
 Cartesian Forces:  Max     0.000107721 RMS     0.000037554
 Z-matrix is all fixed cartesians, so copy forces.
 Force constants in Cartesian coordinates: 
                1             2             3             4             5 
      1  0.138409D+00
      2 -0.190094D-01  0.173090D+00
      3 -0.240475D-02 -0.317095D-02  0.824557D-01
      4 -0.378897D-01  0.622544D-02  0.397683D-02  0.216646D+00
      5 -0.350232D-01 -0.687902D-01  0.179949D-01  0.426359D-02  0.181974D+00
      6  0.736985D-02  0.489750D-02 -0.133641D-01 -0.310617D-01 -0.385448D-02
      7 -0.641007D-01 -0.178700D-01 -0.233941D-01 -0.655456D-02 -0.112074D-01
      8  0.170615D-01 -0.501811D-01  0.160681D-01 -0.854938D-02  0.333241D-02
      9 -0.126959D-02 -0.127546D-02 -0.477164D-01  0.281306D-02 -0.435860D-03
     10  0.989910D-02  0.194335D-02 -0.398927D-02 -0.480531D-01  0.440897D-01
     11  0.336775D-02 -0.432708D-02 -0.565276D-03 -0.540820D-02 -0.639756D-01
     12 -0.360480D-02 -0.296468D-02  0.826247D-02  0.871644D-02 -0.228546D-01
     13 -0.408038D-02 -0.196117D-03  0.778122D-02  0.123518D-02 -0.153125D-02
     14  0.755382D-02  0.578191D-02 -0.260472D-02 -0.449801D-03  0.562395D-02
     15  0.263433D-02  0.237232D-02  0.548511D-02  0.621013D-02  0.357489D-02
     16  0.241484D-02  0.161215D-02  0.313652D-03 -0.649034D-02  0.446434D-02
     17  0.449560D-02  0.142100D-02  0.275946D-02  0.534836D-02  0.100930D-01
     18  0.471283D-02 -0.173478D-02  0.865883D-02  0.507017D-02 -0.230572D-02
     19 -0.494071D-01  0.132182D-01  0.234100D-01 -0.636206D-01 -0.101919D-01
     20  0.102550D-01 -0.637714D-01 -0.392944D-01 -0.913424D-03 -0.391870D-01
     21 -0.286625D-02 -0.584100D-03 -0.594394D-01 -0.515637D-02  0.443526D-02
     22  0.400630D-02  0.893286D-02 -0.583877D-02 -0.545658D-01  0.713265D-02
     23  0.830810D-02 -0.522941D-02  0.109840D-01 -0.286902D-02 -0.363717D-01
     24 -0.747548D-03  0.277908D-02  0.395490D-02  0.124512D-01  0.671304D-02
     25 -0.161975D-03 -0.104836D-03  0.235106D-03 -0.417361D-04 -0.396028D-04
     26 -0.158002D-03 -0.120317D-03  0.198464D-03 -0.881371D-05 -0.629223D-04
     27  0.109471D-03  0.704222D-04 -0.159636D-03  0.170090D-04  0.122742D-03
     28 -0.282652D-04  0.635279D-04  0.925382D-04 -0.486131D-04  0.356431D-04
     29  0.114201D-04  0.343540D-04  0.104798D-03  0.149107D-03 -0.197640D-03
     30  0.819943D-04  0.183042D-03  0.146842D-03  0.239506D-04 -0.328065D-04
     31 -0.769822D-03 -0.122081D-02  0.154860D-02 -0.284616D-04  0.745973D-04
     32  0.176585D-02  0.458686D-02 -0.258053D-02  0.208694D-04 -0.129176D-03
     33 -0.302231D-02 -0.301327D-02  0.728833D-02 -0.128243D-04 -0.396953D-04
     34  0.170846D-02  0.640562D-02 -0.173098D-02 -0.588328D-03 -0.206712D-02
     35  0.137161D-02  0.750530D-02  0.106116D-03  0.219128D-02  0.769109D-02
     36 -0.993225D-03  0.244087D-02  0.442735D-02 -0.304791D-02 -0.331764D-02
                6             7             8             9            10 
      6  0.115148D+00
      7 -0.410275D-02  0.313045D+00
      8 -0.450590D-02 -0.135775D-01  0.335611D+00
      9  0.698231D-02  0.237898D-02  0.227420D-01  0.299755D+00
     10  0.219376D-01  0.332695D-02 -0.396849D-02  0.786745D-04  0.165643D+00
     11 -0.127940D-01 -0.348053D-02 -0.201411D-02 -0.503883D-02  0.136358D-01
     12 -0.204786D-01  0.285529D-03 -0.491314D-02  0.110594D-01 -0.138546D-02
     13  0.131319D-02 -0.353898D-01  0.105973D-02  0.124398D-01  0.636604D-02
     14  0.124514D-02  0.134609D-01 -0.355194D-01 -0.185318D-01 -0.867931D-02
     15  0.943629D-02  0.672971D-02  0.946013D-02 -0.658747D-01  0.256335D-02
     16  0.508298D-02  0.618693D-02  0.508900D-02  0.146900D-02 -0.606548D-01
     17 -0.279389D-02  0.774278D-02 -0.129369D-01 -0.115968D-01 -0.198957D-01
     18  0.106533D-01  0.273549D-02 -0.110523D-01  0.595775D-02 -0.109513D-01
     19  0.379774D-01 -0.452457D-01  0.495273D-02 -0.699901D-02 -0.421008D-01
     20  0.721596D-02 -0.994541D-02 -0.521054D-01 -0.247277D-01  0.150491D-02
     21 -0.739023D-01 -0.787534D-02 -0.132843D-02 -0.685519D-01 -0.425644D-02
     22 -0.386376D-01 -0.470290D-01  0.398018D-02  0.723378D-02 -0.370993D-01
     23  0.122502D-01 -0.118030D-01 -0.739676D-01  0.317520D-01 -0.162651D-01
     24 -0.405430D-01 -0.171092D-02 -0.139805D-01 -0.519117D-01 -0.912512D-03
     25 -0.981021D-04  0.253238D-02  0.407543D-02  0.343147D-02 -0.158354D-02
     26 -0.651457D-04  0.112774D-02  0.469187D-03 -0.118117D-02 -0.168165D-02
     27  0.226806D-03  0.319143D-03  0.372173D-02  0.803374D-02  0.106695D-02
     28 -0.101841D-03 -0.503217D-02  0.899338D-02  0.663314D-02  0.221353D-02
     29  0.199323D-03  0.412092D-02  0.308530D-02 -0.395745D-02 -0.482378D-02
     30 -0.136092D-03  0.444831D-02 -0.491254D-02  0.807052D-02  0.253789D-02
     31  0.135808D-04 -0.584114D-01 -0.239584D-01 -0.427140D-02  0.142068D-04
     32  0.733229D-04  0.193644D-01 -0.413773D-01 -0.555722D-02 -0.487113D-04
     33  0.441167D-04  0.178703D-01  0.602847D-02 -0.368708D-01 -0.144335D-03
     34  0.307289D-03 -0.633284D-01  0.484186D-02 -0.239379D-01  0.202886D-02
     35 -0.186812D-02  0.220672D-01 -0.743964D-01  0.178082D-01 -0.581093D-02
     36  0.593302D-02  0.231568D-02 -0.173277D-01 -0.689334D-01 -0.654521D-02
               11            12            13            14            15 
     11  0.237078D+00
     12  0.282148D-01  0.143836D+00
     13 -0.826432D-02  0.290899D-02  0.240609D+00
     14  0.380482D-02  0.159350D-02  0.891948D-02  0.220379D+00
     15  0.169360D-02  0.696233D-02  0.947272D-02 -0.336150D-01  0.281028D+00
     16  0.263355D-01  0.139151D-01 -0.459076D-01 -0.527684D-02 -0.398044D-02
     17 -0.700944D-01  0.147263D-01 -0.209591D-03 -0.748311D-01 -0.153077D-01
     18 -0.363377D-03 -0.658358D-01 -0.627697D-03  0.260965D-01 -0.535127D-01
     19 -0.117757D-01  0.109552D-01 -0.841217D-01  0.854214D-03 -0.309370D-01
     20 -0.755553D-01  0.404634D-01 -0.189390D-01 -0.678860D-01 -0.712218D-02
     21 -0.706543D-02 -0.456974D-01  0.256084D-01  0.117424D-01 -0.733285D-01
     22 -0.731296D-02 -0.212590D-01  0.211772D-02 -0.612880D-02  0.888575D-02
     23 -0.459274D-01 -0.471102D-01 -0.366206D-02  0.626276D-02  0.921820D-02
     24 -0.534990D-04 -0.665517D-01  0.279954D-02  0.711219D-02 -0.267041D-02
     25  0.306624D-02 -0.492202D-02  0.955979D-02  0.579074D-02 -0.288999D-02
     26  0.419155D-02 -0.234578D-02  0.559322D-02  0.475894D-03  0.694771D-02
     27 -0.139509D-02  0.524875D-02 -0.945171D-03  0.277193D-02  0.287752D-02
     28 -0.617256D-02  0.110641D-02 -0.603557D-01  0.279778D-02  0.138900D-01
     29  0.130364D-01 -0.360365D-02  0.230034D-01 -0.378302D-01  0.687909D-02
     30 -0.258527D-02  0.149655D-01 -0.279588D-01  0.221695D-01 -0.367898D-01
     31 -0.219586D-04 -0.463341D-04 -0.364699D-01 -0.210990D-01 -0.629986D-02
     32 -0.109664D-03  0.652508D-04 -0.649407D-02 -0.309226D-01  0.685271D-02
     33  0.237351D-03 -0.135371D-03 -0.300806D-01 -0.281290D-01 -0.567306D-01
     34 -0.396898D-02 -0.667004D-02  0.643704D-02  0.225685D-02 -0.627878D-02
     35  0.389325D-02 -0.127117D-02  0.720523D-03  0.466096D-02  0.904628D-02
     36 -0.284999D-03  0.836425D-02 -0.271153D-02  0.101493D-01 -0.168824D-01
               16            17            18            19            20 
     16  0.385852D+00
     17 -0.241907D-01  0.459649D+00
     18  0.139208D-01  0.262234D-01  0.443196D+00
     19 -0.740006D-01  0.232631D-02 -0.283770D-01  0.402049D+00
     20  0.176695D-01 -0.864411D-01  0.121076D-01 -0.746962D-03  0.383682D+00
     21  0.117701D-01 -0.242660D-01 -0.903031D-01  0.112644D-01 -0.129080D-02
     22 -0.438010D-01 -0.348491D-02  0.140954D-01 -0.378416D-01  0.197205D-02
     23  0.119662D-01 -0.459131D-01 -0.194299D-01 -0.109419D-02 -0.312450D-01
     24  0.377475D-02  0.760782D-02 -0.710782D-01  0.118890D-02  0.111611D-01
     25 -0.624781D-01  0.225799D-01 -0.956716D-02  0.212385D-02  0.162744D-02
     26 -0.112910D-01 -0.532096D-01 -0.113909D-01  0.370984D-02  0.631282D-02
     27 -0.235802D-01  0.224137D-01 -0.707611D-01 -0.534748D-03  0.197946D-02
     28 -0.652999D-01  0.152353D-01  0.167974D-01 -0.443303D-02  0.837406D-03
     29 -0.164782D-01 -0.715153D-01  0.389369D-02  0.238718D-02  0.119144D-01
     30 -0.175265D-01 -0.111556D-01 -0.606118D-01  0.352809D-03 -0.190707D-02
     31  0.340921D-02 -0.932402D-02 -0.211724D-02 -0.551601D-03 -0.260521D-02
     32 -0.462115D-02 -0.571970D-02 -0.583744D-02 -0.540008D-02  0.349552D-02
     33 -0.987834D-04 -0.543942D-02  0.928079D-02 -0.522050D-02  0.313131D-03
     34 -0.392306D-01 -0.623369D-03 -0.569170D-02 -0.285009D-02 -0.716325D-03
     35 -0.527889D-02 -0.505021D-01 -0.162068D-01  0.176035D-02  0.107866D-01
     36 -0.506045D-02 -0.317138D-02 -0.656442D-01 -0.130805D-01  0.110160D-02
               21            22            23            24            25 
     21  0.454013D+00
     22 -0.736241D-02  0.299563D+00
     23  0.120860D-01  0.176909D-01  0.281186D+00
     24 -0.688782D-01  0.108582D-02 -0.226375D-01  0.345642D+00
     25 -0.394321D-02 -0.536024D-02  0.973781D-02  0.594689D-04  0.119917D+00
     26  0.562600D-02  0.610369D-03  0.382734D-02  0.222262D-02 -0.237698D-01
     27  0.926378D-02  0.529906D-02 -0.241006D-02  0.539197D-02  0.390833D-02
     28 -0.386957D-02 -0.160659D-02 -0.132376D-02  0.690139D-02 -0.329779D-01
     29 -0.123323D-02  0.951302D-03  0.682951D-02  0.273341D-02 -0.316717D-01
     30  0.717414D-02  0.531046D-02  0.358509D-02  0.826374D-02  0.237449D-01
     31 -0.584954D-02  0.328586D-02 -0.724929D-02  0.482699D-02  0.716487D-02
     32 -0.964060D-03 -0.845391D-02  0.483118D-02  0.139442D-02 -0.143414D-02
     33  0.100743D-01  0.192578D-02 -0.137412D-02  0.598892D-02 -0.392860D-02
     34 -0.746377D-02 -0.816697D-01 -0.343656D-02 -0.297171D-01 -0.386948D-01
     35  0.284231D-02 -0.158897D-01 -0.642830D-01 -0.505213D-02  0.101425D-01
     36 -0.424159D-03  0.292617D-01  0.130861D-01 -0.676080D-01 -0.603017D-02
               26            27            28            29            30 
     26  0.172272D+00
     27 -0.268661D-01  0.109231D+00
     28  0.940552D-02  0.232851D-02  0.256557D+00
     29 -0.635201D-01  0.380818D-01 -0.164186D-01  0.235805D+00
     30  0.199194D-01 -0.400968D-01 -0.471160D-01 -0.111634D-01  0.201941D+00
     31  0.129004D-02 -0.404709D-02 -0.380515D-01  0.340583D-01  0.202388D-01
     32 -0.487355D-02  0.791574D-04 -0.147327D-01 -0.719122D-01 -0.138619D-01
     33  0.207226D-02  0.103536D-01  0.329901D-02 -0.294888D-01 -0.334756D-01
     34  0.151725D-01  0.160587D-01 -0.509370D-01  0.471058D-02  0.358623D-01
     35 -0.657625D-01 -0.385697D-01  0.127901D-02 -0.257298D-01 -0.238522D-03
     36  0.486268D-02 -0.396095D-01  0.390486D-04 -0.244564D-02 -0.694511D-01
               31            32            33            34            35 
     31  0.158917D+00
     32  0.359937D-01  0.199403D+00
     33  0.211561D-02  0.214259D-01  0.128279D+00
     34 -0.385082D-01 -0.159600D-01  0.172972D-01  0.305633D+00
     35 -0.593788D-02 -0.572722D-01  0.374073D-01 -0.661503D-02  0.303409D+00
     36 -0.611208D-02 -0.108966D-02 -0.440967D-01  0.119647D-01 -0.400365D-02
               36 
     36  0.353925D+00
 Leave Link  716 at Wed Feb 26 00:52:31 2025, MaxMem=  2097152000 cpu:               0.1 elap:               0.0
 (Enter /nvme/h/buildsets/eb_nepheli/software/Gaussian/16.C.01-AVX2/g16/l103.exe)

 GradGradGradGradGradGradGradGradGradGradGradGradGradGradGradGradGradGrad
 Berny optimization.
 Search for a local minimum.
 Step number   1 out of a maximum of    2
 All quantities printed in internal units (Hartrees-Bohrs-Radians)
 Second derivative matrix not updated -- first step.
 ITU=  0
     Eigenvalues ---    0.05797   0.08191   0.09330   0.10667   0.13131
     Eigenvalues ---    0.13540   0.16807   0.18134   0.19712   0.21504
     Eigenvalues ---    0.23681   0.24974   0.25992   0.26259   0.29077
     Eigenvalues ---    0.30002   0.30741   0.32607   0.36103   0.38861
     Eigenvalues ---    0.40544   0.41898   0.43009   0.43247   0.45585
     Eigenvalues ---    0.46182   0.48875   0.50711   0.55930   0.60625
 Angle between quadratic step and forces=  27.95 degrees.
 Linear search not attempted -- first point.
 B after Tr=     0.000000    0.000000    0.000000
         Rot=    1.000000   -0.000000    0.000000   -0.000000 Ang=   0.00 deg.
 Variable       Old X    -DE/DX   Delta X   Delta X   Delta X     New X
                                 (Linear)    (Quad)   (Total)
    X1        5.58774   0.00002   0.00000   0.00009   0.00009   5.58783
    Y1       -4.35684   0.00001   0.00000  -0.00000  -0.00000  -4.35684
    Z1        0.23292  -0.00003   0.00000  -0.00015  -0.00015   0.23277
    X2        7.16632  -0.00004   0.00000  -0.00019  -0.00019   7.16613
    Y2        0.60541  -0.00005   0.00000  -0.00018  -0.00018   0.60523
    Z2       -0.68929  -0.00000   0.00000   0.00008   0.00008  -0.68921
    X3        0.55878   0.00002   0.00000   0.00007   0.00007   0.55885
    Y3       -3.44005  -0.00000   0.00000  -0.00001  -0.00001  -3.44006
    Z3       -1.46500   0.00002   0.00000   0.00002   0.00002  -1.46498
    X4        4.19510   0.00001   0.00000  -0.00004  -0.00004   4.19505
    Y4        4.62387   0.00006   0.00000   0.00024   0.00024   4.62411
    Z4        0.95806  -0.00002   0.00000  -0.00003  -0.00003   0.95803
    X5       -1.88249   0.00003   0.00000   0.00014   0.00014  -1.88235
    Y5       -2.23368  -0.00003   0.00000  -0.00013  -0.00013  -2.23381
    Z5        3.32628  -0.00003   0.00000  -0.00009  -0.00009   3.32618
    X6       -1.16127   0.00003   0.00000   0.00004   0.00004  -1.16122
    Y6        2.81327   0.00009   0.00000   0.00020   0.00020   2.81347
    Z6        1.55417   0.00011   0.00000   0.00020   0.00020   1.55437
    X7        2.94407  -0.00006   0.00000  -0.00013  -0.00013   2.94394
    Y7       -0.39613  -0.00003   0.00000  -0.00006  -0.00006  -0.39620
    Z7        2.46630  -0.00001   0.00000   0.00002   0.00002   2.46633
    X8        2.04034  -0.00000   0.00000   0.00000   0.00000   2.04034
    Y8        1.54679  -0.00007   0.00000  -0.00014  -0.00014   1.54665
    Z8       -2.82636  -0.00000   0.00000   0.00006   0.00006  -2.82630
    X9       -5.17535  -0.00001   0.00000  -0.00007  -0.00007  -5.17541
    Y9        4.72495  -0.00004   0.00000  -0.00017  -0.00017   4.72477
    Z9       -1.31953  -0.00002   0.00000  -0.00018  -0.00018  -1.31972
   X10       -6.27526   0.00001   0.00000   0.00007   0.00007  -6.27519
   Y10        0.36008   0.00002   0.00000   0.00009   0.00009   0.36017
   Z10        1.34648   0.00000   0.00000   0.00008   0.00008   1.34656
   X11       -4.98543  -0.00002   0.00000  -0.00006  -0.00006  -4.98549
   Y11       -4.35280  -0.00000   0.00000   0.00004   0.00004  -4.35276
   Z11       -0.59646   0.00002   0.00000   0.00001   0.00001  -0.59645
   X12       -3.01254   0.00001   0.00000   0.00007   0.00007  -3.01247
   Y12        0.10513   0.00005   0.00000   0.00013   0.00013   0.10526
   Z12       -2.98756  -0.00002   0.00000  -0.00002  -0.00002  -2.98759
         Item               Value     Threshold  Converged?
 Maximum Force            0.000108     0.000450     YES
 RMS     Force            0.000038     0.000300     YES
 Maximum Displacement     0.000238     0.001800     YES
 RMS     Displacement     0.000113     0.001200     YES
 Predicted change in Energy=-6.722312D-08
 Optimization completed.
    -- Stationary point found.
 GradGradGradGradGradGradGradGradGradGradGradGradGradGradGradGradGradGrad

 Leave Link  103 at Wed Feb 26 00:52:32 2025, MaxMem=  2097152000 cpu:               0.4 elap:               0.1
 (Enter /nvme/h/buildsets/eb_nepheli/software/Gaussian/16.C.01-AVX2/g16/l9999.exe)
 Unable to Open any file for archive entry.
 1\1\GINC-NE08\Force\RwB97XD\def2SVP\Ag12\NPATSALIDIS\26-Feb-2025\0\\#p
  wb97xd/def2SVP scf(xqc) scfcyc=999 force\\Template file\\0,1\Ag,2.956
 904,-2.305539,0.123254\Ag,3.792252,0.32037,-0.364754\Ag,0.295694,-1.82
 0394,-0.775246\Ag,2.21995,2.446848,0.506986\Ag,-0.996171,-1.182011,1.7
 60189\Ag,-0.614517,1.48872,0.822433\Ag,1.557934,-0.209624,1.305111\Ag,
 1.079699,0.818525,-1.495646\Ag,-2.738675,2.500334,-0.698267\Ag,-3.3207
 24,0.190546,0.712525\Ag,-2.638176,-2.303405,-0.315635\Ag,-1.594169,0.0
 55631,-1.580949\\Version=ES64L-G16RevC.01\State=1-A\HF=-1764.390898\RM
 SD=6.354e-09\RMSF=3.755e-05\Dipole=0.0186085,0.2713973,-0.1215986\Quad
 rupole=0.3244879,6.1024469,-6.4269348,-1.3609096,-0.191002,-0.6599074\
 PG=C01 [X(Ag12)]\\@
 The archive entry for this job was punched.


 IT CANNOT BE MY BEAUTY, FOR I HAVE NONE; AND IT CANNOT BE MY WIT,
 FOR HE HAS NOT ENOUGH TO KNOW THAT I HAVE ANY.
 -- CATHARINE SEDLEY, PUZZLED ABOUT WHY SHE WAS MISTRESS TO JAMES II
 Job cpu time:       0 days  0 hours 45 minutes 55.4 seconds.
 Elapsed time:       0 days  0 hours 11 minutes 37.2 seconds.
 File lengths (MBytes):  RWF=     83 Int=      0 D2E=      0 Chk=      9 Scr=      1
 Normal termination of Gaussian 16 at Wed Feb 26 00:52:32 2025.
