 Entering Gaussian System, Link 0=g16
 Initial command:
 /nvme/h/buildsets/eb_nepheli/software/Gaussian/16.C.01-AVX2/g16/l1.exe "/onyx/data/simea/nikolas/postDoc/Active-Learning-Package/Ag-mainy/init_data/Ag13/Gau-158983.inp" -scrdir="/onyx/data/simea/nikolas/postDoc/Active-Learning-Package/Ag-mainy/init_data/Ag13/"
 Entering Link 1 = /nvme/h/buildsets/eb_nepheli/software/Gaussian/16.C.01-AVX2/g16/l1.exe PID=    158984.
  
 Copyright (c) 1988-2019, Gaussian, Inc.  All Rights Reserved.
  
 This is part of the Gaussian(R) 16 program.  It is based on
 the Gaussian(R) 09 system (copyright 2009, Gaussian, Inc.),
 the Gaussian(R) 03 system (copyright 2003, Gaussian, Inc.),
 the Gaussian(R) 98 system (copyright 1998, Gaussian, Inc.),
 the Gaussian(R) 94 system (copyright 1995, Gaussian, Inc.),
 the Gaussian 92(TM) system (copyright 1992, Gaussian, Inc.),
 the Gaussian 90(TM) system (copyright 1990, Gaussian, Inc.),
 the Gaussian 88(TM) system (copyright 1988, Gaussian, Inc.),
 the Gaussian 86(TM) system (copyright 1986, Carnegie Mellon
 University), and the Gaussian 82(TM) system (copyright 1983,
 Carnegie Mellon University). Gaussian is a federally registered
 trademark of Gaussian, Inc.
  
 This software contains proprietary and confidential information,
 including trade secrets, belonging to Gaussian, Inc.
  
 This software is provided under written license and may be
 used, copied, transmitted, or stored only in accord with that
 written license.
  
 The following legend is applicable only to US Government
 contracts under FAR:
  
                    RESTRICTED RIGHTS LEGEND
  
 Use, reproduction and disclosure by the US Government is
 subject to restrictions as set forth in subparagraphs (a)
 and (c) of the Commercial Computer Software - Restricted
 Rights clause in FAR 52.227-19.
  
 Gaussian, Inc.
 340 Quinnipiac St., Bldg. 40, Wallingford CT 06492
  
  
 ---------------------------------------------------------------
 Warning -- This program may not be used in any manner that
 competes with the business of Gaussian, Inc. or will provide
 assistance to any competitor of Gaussian, Inc.  The licensee
 of this program is prohibited from giving any competitor of
 Gaussian, Inc. access to this program.  By using this program,
 the user acknowledges that Gaussian, Inc. is engaged in the
 business of creating and licensing software in the field of
 computational chemistry and represents and warrants to the
 licensee that it is not a competitor of Gaussian, Inc. and that
 it will not use this program in any manner prohibited above.
 ---------------------------------------------------------------
  

 Cite this work as:
 Gaussian 16, Revision C.01,
 M. J. Frisch, G. W. Trucks, H. B. Schlegel, G. E. Scuseria, 
 M. A. Robb, J. R. Cheeseman, G. Scalmani, V. Barone, 
 G. A. Petersson, H. Nakatsuji, X. Li, M. Caricato, A. V. Marenich, 
 J. Bloino, B. G. Janesko, R. Gomperts, B. Mennucci, H. P. Hratchian, 
 J. V. Ortiz, A. F. Izmaylov, J. L. Sonnenberg, D. Williams-Young, 
 F. Ding, F. Lipparini, F. Egidi, J. Goings, B. Peng, A. Petrone, 
 T. Henderson, D. Ranasinghe, V. G. Zakrzewski, J. Gao, N. Rega, 
 G. Zheng, W. Liang, M. Hada, M. Ehara, K. Toyota, R. Fukuda, 
 J. Hasegawa, M. Ishida, T. Nakajima, Y. Honda, O. Kitao, H. Nakai, 
 T. Vreven, K. Throssell, J. A. Montgomery, Jr., J. E. Peralta, 
 F. Ogliaro, M. J. Bearpark, J. J. Heyd, E. N. Brothers, K. N. Kudin, 
 V. N. Staroverov, T. A. Keith, R. Kobayashi, J. Normand, 
 K. Raghavachari, A. P. Rendell, J. C. Burant, S. S. Iyengar, 
 J. Tomasi, M. Cossi, J. M. Millam, M. Klene, C. Adamo, R. Cammi, 
 J. W. Ochterski, R. L. Martin, K. Morokuma, O. Farkas, 
 J. B. Foresman, and D. J. Fox, Gaussian, Inc., Wallingford CT, 2019.
 
 ******************************************
 Gaussian 16:  ES64L-G16RevC.01  3-Jul-2019
                26-Feb-2025 
 ******************************************
 %nprocshared=4
 Will use up to    4 processors via shared memory.
 %mem=16000MB
 -------------------------------------------
 #p wb97xd/def2SVP scf(xqc) scfcyc=999 force
 -------------------------------------------
 1/10=7,30=1,38=1/1,3;
 2/12=2,17=6,18=5,40=1/2;
 3/5=43,7=101,11=2,25=1,30=1,71=1,74=-58/1,2,3;
 4//1;
 5/5=2,7=999,8=3,13=1,38=5/2,8;
 6/7=2,8=2,9=2,10=2,28=1/1;
 7/29=1/1,2,3,16;
 1/10=7,30=1/3;
 99//99;
 Leave Link    1 at Wed Feb 26 07:32:15 2025, MaxMem=  2097152000 cpu:               0.4 elap:               0.1
 (Enter /nvme/h/buildsets/eb_nepheli/software/Gaussian/16.C.01-AVX2/g16/l101.exe)
 -------------
 Template file
 -------------
 Symbolic Z-matrix:
 Charge =  0 Multiplicity = 2
 Ag                   -2.05557  -0.00261   2.04505 
 Ag                    2.05459   0.00253  -2.04621 
 Ag                    0.00221   2.04519  -2.04103 
 Ag                   -0.00225  -2.04473   2.04088 
 Ag                    0.00017   0.00012   0.00044 
 Ag                   -2.06088   2.04322  -0.00439 
 Ag                    0.10368  -2.05384  -2.04485 
 Ag                   -0.10408   2.05325   2.04551 
 Ag                    2.05177   2.04991  -0.08076 
 Ag                    2.06146  -2.04216   0.00403 
 Ag                   -2.05156  -2.05084   0.08044 
 Ag                   -2.04947   0.08478  -2.05835 
 Ag                    2.04993  -0.08484   2.05922 
 
 ITRead=  0  0  0  0  0  0  0  0  0  0  0  0  0
 MicOpt= -1 -1 -1 -1 -1 -1 -1 -1 -1 -1 -1 -1 -1
 NAtoms=     13 NQM=       13 NQMF=       0 NMMI=      0 NMMIF=      0
                NMic=       0 NMicF=      0.
                    Isotopes and Nuclear Properties:
 (Nuclear quadrupole moments (NQMom) in fm**2, nuclear magnetic moments (NMagM)
  in nuclear magnetons)

  Atom         1           2           3           4           5           6           7           8           9          10
 IAtWgt=         107         107         107         107         107         107         107         107         107         107
 AtmWgt= 106.9050900 106.9050900 106.9050900 106.9050900 106.9050900 106.9050900 106.9050900 106.9050900 106.9050900 106.9050900
 NucSpn=           1           1           1           1           1           1           1           1           1           1
 AtZEff=  -0.0000000  -0.0000000  -0.0000000  -0.0000000  -0.0000000  -0.0000000  -0.0000000  -0.0000000  -0.0000000  -0.0000000
 NQMom=    0.0000000   0.0000000   0.0000000   0.0000000   0.0000000   0.0000000   0.0000000   0.0000000   0.0000000   0.0000000
 NMagM=   -0.1135700  -0.1135700  -0.1135700  -0.1135700  -0.1135700  -0.1135700  -0.1135700  -0.1135700  -0.1135700  -0.1135700
 AtZNuc=  47.0000000  47.0000000  47.0000000  47.0000000  47.0000000  47.0000000  47.0000000  47.0000000  47.0000000  47.0000000

  Atom        11          12          13
 IAtWgt=         107         107         107
 AtmWgt= 106.9050900 106.9050900 106.9050900
 NucSpn=           1           1           1
 AtZEff=  -0.0000000  -0.0000000  -0.0000000
 NQMom=    0.0000000   0.0000000   0.0000000
 NMagM=   -0.1135700  -0.1135700  -0.1135700
 AtZNuc=  47.0000000  47.0000000  47.0000000
 Leave Link  101 at Wed Feb 26 07:32:15 2025, MaxMem=  2097152000 cpu:               0.1 elap:               0.1
 (Enter /nvme/h/buildsets/eb_nepheli/software/Gaussian/16.C.01-AVX2/g16/l103.exe)

 GradGradGradGradGradGradGradGradGradGradGradGradGradGradGradGradGradGrad
 Berny optimization.
 Initialization pass.
 Trust Radius=3.00D-01 FncErr=1.00D-07 GrdErr=1.00D-07 EigMax=2.50D+02 EigMin=1.00D-04
 Number of steps in this run=      2 maximum allowed number of steps=      2.
 GradGradGradGradGradGradGradGradGradGradGradGradGradGradGradGradGradGrad

 Leave Link  103 at Wed Feb 26 07:32:15 2025, MaxMem=  2097152000 cpu:               0.1 elap:               0.0
 (Enter /nvme/h/buildsets/eb_nepheli/software/Gaussian/16.C.01-AVX2/g16/l202.exe)
                          Input orientation:                          
 ---------------------------------------------------------------------
 Center     Atomic      Atomic             Coordinates (Angstroms)
 Number     Number       Type             X           Y           Z
 ---------------------------------------------------------------------
      1         47           0       -2.055571   -0.002607    2.045054
      2         47           0        2.054594    0.002532   -2.046211
      3         47           0        0.002207    2.045190   -2.041026
      4         47           0       -0.002247   -2.044729    2.040883
      5         47           0        0.000173    0.000121    0.000439
      6         47           0       -2.060882    2.043218   -0.004387
      7         47           0        0.103680   -2.053843   -2.044852
      8         47           0       -0.104079    2.053251    2.045513
      9         47           0        2.051765    2.049914   -0.080763
     10         47           0        2.061459   -2.042155    0.004029
     11         47           0       -2.051563   -2.050838    0.080443
     12         47           0       -2.049465    0.084784   -2.058345
     13         47           0        2.049929   -0.084839    2.059222
 ---------------------------------------------------------------------
                    Distance matrix (angstroms):
                    1          2          3          4          5
     1  Ag   0.000000
     2  Ag   5.799304   0.000000
     3  Ag   5.012382   2.895647   0.000000
     4  Ag   2.895931   5.012605   5.778359   0.000000
     5  Ag   2.899404   2.899901   2.889618   2.888742   0.000000
     6  Ag   2.895796   5.026986   2.899006   5.013224   2.902106
     7  Ag   5.059374   2.834563   4.100291   4.087118   2.900465
     8  Ag   2.834585   5.060388   4.087929   4.099248   2.899748
     9  Ag   5.059857   2.838092   2.836079   5.048410   2.901254
    10  Ag   5.027472   2.895561   5.012899   2.899597   2.901690
    11  Ag   2.838127   5.059596   5.049361   2.836029   2.902146
    12  Ag   4.104334   4.104901   2.837754   5.052682   2.906334
    13  Ag   4.106348   4.106365   5.053931   2.837769   2.906425
                    6          7          8          9         10
     6  Ag   0.000000
     7  Ag   5.063076   0.000000
     8  Ag   2.833949   5.800213   0.000000
     9  Ag   4.113362   4.949091   3.027990   0.000000
    10  Ag   5.803795   2.833893   5.062565   4.092959   0.000000
    11  Ag   4.094945   3.026873   4.949519   5.803400   4.113741
    12  Ag   2.838016   3.034788   4.949852   4.959098   5.067243
    13  Ag   5.068123   4.950584   3.035023   3.022699   2.838140
                   11         12         13
    11  Ag   0.000000
    12  Ag   3.022466   0.000000
    13  Ag   4.960137   5.812758   0.000000
 Stoichiometry    Ag13(2)
 Framework group  C1[X(Ag13)]
 Deg. of freedom    33
 Full point group                 C1      NOp   1
 Largest Abelian subgroup         C1      NOp   1
 Largest concise Abelian subgroup C1      NOp   1
                         Standard orientation:                         
 ---------------------------------------------------------------------
 Center     Atomic      Atomic             Coordinates (Angstroms)
 Number     Number       Type             X           Y           Z
 ---------------------------------------------------------------------
      1         47           0        2.334257   -1.719222   -0.056089
      2         47           0       -2.333840    1.719954    0.057350
      3         47           0        0.321814    2.871314   -0.024159
      4         47           0       -0.321609   -2.870909    0.023991
      5         47           0        0.000049   -0.000235   -0.000424
      6         47           0        2.659991    1.158154   -0.071553
      7         47           0       -1.677621    0.198570    2.357243
      8         47           0        1.677880   -0.199489   -2.357057
      9         47           0       -0.767344    1.585711   -2.305453
     10         47           0       -2.660083   -1.157138    0.070811
     11         47           0        0.766647   -1.586058    2.306077
     12         47           0        1.100536    1.417837    2.285353
     13         47           0       -1.100675   -1.418490   -2.286089
 ---------------------------------------------------------------------
 Rotational constants (GHZ):           0.0711688           0.0708800           0.0688161
 Leave Link  202 at Wed Feb 26 07:32:15 2025, MaxMem=  2097152000 cpu:               0.0 elap:               0.0
 (Enter /nvme/h/buildsets/eb_nepheli/software/Gaussian/16.C.01-AVX2/g16/l301.exe)
 Standard basis: def2SVP (5D, 7F)
 Ernie: Thresh=  0.10000D-02 Tol=  0.10000D-05 Strict=F.
 There are   468 symmetry adapted cartesian basis functions of A   symmetry.
 There are   403 symmetry adapted basis functions of A   symmetry.
   403 basis functions,   845 primitive gaussians,   468 cartesian basis functions
   124 alpha electrons      123 beta electrons
       nuclear repulsion energy      4042.5237272112 Hartrees.
 IExCor= 4639 DFT=T Ex+Corr=wB97XD ExCW=0 ScaHFX=  1.000000
 ScaDFX=  1.000000  1.000000  1.000000  1.000000 ScalE2=  1.000000  1.000000
 IRadAn=      5 IRanWt=     -1 IRanGd=            0 ICorTp=0 IEmpDi=121
 HFx  wShort=  0.000000 wLong=  0.200000 cFull=  0.222036 cShort=  0.000000 cLong=  0.777964
 DFx  wShort=  0.000000 wLong=  0.200000 cFull=  0.000000 cShort=  0.000000 cLong=  1.000000
 NAtoms=   13 NActive=   13 NUniq=   13 SFac= 1.00D+00 NAtFMM=   60 NAOKFM=F Big=F
 Integral buffers will be    131072 words long.
 Raffenetti 2 integral format.
 Two-electron integral symmetry is turned on.
 R6Disp:  Grimme-D2 Dispersion energy=       -0.0529598793 Hartrees.
 Nuclear repulsion after empirical dispersion term =     4042.4707673319 Hartrees.
 Leave Link  301 at Wed Feb 26 07:32:15 2025, MaxMem=  2097152000 cpu:               0.1 elap:               0.0
 (Enter /nvme/h/buildsets/eb_nepheli/software/Gaussian/16.C.01-AVX2/g16/l302.exe)
 NPDir=0 NMtPBC=     1 NCelOv=     1 NCel=       1 NClECP=     1 NCelD=      1
         NCelK=      1 NCelE2=     1 NClLst=     1 CellRange=     0.0.
 One-electron integrals computed using PRISM.
 One-electron integral symmetry used in STVInt
   1 Symmetry operations used in ECPInt.
 ECPInt:  NShTT=   10296 NPrTT=   30823 LenC2=    9983 LenP2D=   25079.
 LDataN:  DoStor=T MaxTD1= 7 Len=  274
 NBasis=   403 RedAO= T EigKep=  1.46D-04  NBF=   403
 NBsUse=   403 1.00D-06 EigRej= -1.00D+00 NBFU=   403
 Precomputing XC quadrature grid using
 IXCGrd= 4 IRadAn=           5 IRanWt=          -1 IRanGd=           0 AccXCQ= 0.00D+00.
 Defaulting to unpruned grid for atomic number  47.
 Defaulting to unpruned grid for atomic number  47.
 Defaulting to unpruned grid for atomic number  47.
 Defaulting to unpruned grid for atomic number  47.
 Generated NRdTot=       0 NPtTot=           0 NUsed=           0 NTot=          32
 NSgBfM=   468   468   468   468   468 MxSgAt=    13 MxSgA2=    13.
 Leave Link  302 at Wed Feb 26 07:32:18 2025, MaxMem=  2097152000 cpu:              10.7 elap:               2.7
 (Enter /nvme/h/buildsets/eb_nepheli/software/Gaussian/16.C.01-AVX2/g16/l303.exe)
 DipDrv:  MaxL=1.
 Leave Link  303 at Wed Feb 26 07:32:18 2025, MaxMem=  2097152000 cpu:               0.1 elap:               0.1
 (Enter /nvme/h/buildsets/eb_nepheli/software/Gaussian/16.C.01-AVX2/g16/l401.exe)
 ExpMin= 3.75D-02 ExpMax= 9.09D+00 ExpMxC= 9.09D+00 IAcc=3 IRadAn=         5 AccDes= 0.00D+00
 Harris functional with IExCor= 4639 and IRadAn=       5 diagonalized for initial guess.
 HarFok:  IExCor= 4639 AccDes= 0.00D+00 IRadAn=         5 IDoV= 1 UseB2=F ITyADJ=14
 ICtDFT=  3500011 ScaDFX=  1.000000  1.000000  1.000000  1.000000
 Defaulting to unpruned grid for atomic number  47.
 FoFCou: FMM=F IPFlag=           0 FMFlag=      100000 FMFlg1=           0
         NFxFlg=           0 DoJE=T BraDBF=F KetDBF=T FulRan=T
         wScrn=  0.000000 ICntrl=       500 IOpCl=  0 I1Cent=   200000004 NGrid=           0
         NMat0=    1 NMatS0=      1 NMatT0=    0 NMatD0=    1 NMtDS0=    0 NMtDT0=    0
 Petite list used in FoFCou.
 Harris En= -1860.35926056356    
 JPrj=0 DoOrth=F DoCkMO=F.
 Initial guess <Sx>= 0.0000 <Sy>= 0.0000 <Sz>= 0.5000 <S**2>= 0.7500 S= 0.5000
 Leave Link  401 at Wed Feb 26 07:32:21 2025, MaxMem=  2097152000 cpu:               9.3 elap:               2.4
 (Enter /nvme/h/buildsets/eb_nepheli/software/Gaussian/16.C.01-AVX2/g16/l502.exe)
 Integral symmetry usage will be decided dynamically.
 UHF open shell SCF:
 Using DIIS extrapolation, IDIIS=  1040.
 NGot=  2097152000 LenX=  2096706714 LenY=  2096487222
 Requested convergence on RMS density matrix=1.00D-08 within 128 cycles.
 Requested convergence on MAX density matrix=1.00D-06.
 Requested convergence on             energy=1.00D-06.
 No special actions if energy rises.
 Fock matrices will be formed incrementally for  20 cycles.

 Cycle   1  Pass 1  IDiag  1:
 FoFJK:  IHMeth= 1 ICntrl=       0 DoSepK=T KAlg= 0 I1Cent=           0 FoldK=F
 IRaf=         1 NMat=       1 IRICut=       1 DoRegI=T DoRafI=F ISym2E= 0 IDoP0=0 IntGTp=1.
 FoFCou: FMM=F IPFlag=           0 FMFlag=      100000 FMFlg1=           0
         NFxFlg=           0 DoJE=T BraDBF=F KetDBF=F FulRan=T
         wScrn=  0.000000 ICntrl=       500 IOpCl=  0 I1Cent=           0 NGrid=           0
         NMat0=    1 NMatS0=      1 NMatT0=    0 NMatD0=    1 NMtDS0=    0 NMtDT0=    0
 Symmetry not used in FoFCou.
 Defaulting to unpruned grid for atomic number  47.
 Defaulting to unpruned grid for atomic number  47.
 Defaulting to unpruned grid for atomic number  47.
 Defaulting to unpruned grid for atomic number  47.
 E= -1891.31088899147    
 DIIS: error= 2.26D-01 at cycle   1 NSaved=   1.
 NSaved= 1 IEnMin= 1 EnMin= -1891.31088899147     IErMin= 1 ErrMin= 2.26D-01
 ErrMax= 2.26D-01  0.00D+00 EMaxC= 1.00D-01 BMatC= 9.10D+01 BMatP= 9.10D+01
 IDIUse=3 WtCom= 0.00D+00 WtEn= 1.00D+00
 Coeff-Com:  0.100D+01
 Coeff-En:   0.100D+01
 Coeff:      0.100D+01
 Gap=     0.107 Goal=   None    Shift=    0.000
 Gap=     0.136 Goal=   None    Shift=    0.000
 GapD=    0.107 DampG=1.000 DampE=0.125 DampFc=0.1250 IDamp=-1.
 Damping current iteration by 1.25D-01
 RMSDP=3.89D-02 MaxDP=2.48D+00              OVMax= 9.75D-01

 Cycle   2  Pass 1  IDiag  1:
 RMSU=  4.43D-03    CP:  9.53D-01
 E= -1895.95966607412     Delta-E=       -4.648777082645 Rises=F Damp=T
 DIIS: error= 1.70D-01 at cycle   2 NSaved=   2.
 NSaved= 2 IEnMin= 2 EnMin= -1895.95966607412     IErMin= 2 ErrMin= 1.70D-01
 ErrMax= 1.70D-01  0.00D+00 EMaxC= 1.00D-01 BMatC= 5.01D+01 BMatP= 9.10D+01
 IDIUse=3 WtCom= 0.00D+00 WtEn= 1.00D+00
 Coeff-Com: -0.280D+01 0.380D+01
 Coeff-En:   0.000D+00 0.100D+01
 Coeff:      0.000D+00 0.100D+01
 Gap=     0.101 Goal=   None    Shift=    0.000
 Gap=     0.039 Goal=   None    Shift=    0.000
 RMSDP=3.11D-02 MaxDP=1.70D+00 DE=-4.65D+00 OVMax= 9.32D-02

 Cycle   3  Pass 1  IDiag  1:
 RMSU=  1.90D-02    CP:  6.11D-01  3.00D+00
 E= -1903.77201575342     Delta-E=       -7.812349679310 Rises=F Damp=F
 DIIS: error= 1.10D-01 at cycle   3 NSaved=   3.
 NSaved= 3 IEnMin= 3 EnMin= -1903.77201575342     IErMin= 3 ErrMin= 1.10D-01
 ErrMax= 1.10D-01  0.00D+00 EMaxC= 1.00D-01 BMatC= 3.17D+01 BMatP= 5.01D+01
 IDIUse=3 WtCom= 0.00D+00 WtEn= 1.00D+00
 EnCoef did   100 forward-backward iterations
 Coeff-Com: -0.285D+01 0.386D+01-0.922D-02
 Coeff-En:   0.275D+00 0.230D-02 0.723D+00
 Coeff:      0.275D+00 0.230D-02 0.723D+00
 Gap=     0.149 Goal=   None    Shift=    0.000
 Gap=     0.108 Goal=   None    Shift=    0.000
 RMSDP=2.53D-02 MaxDP=1.71D+00 DE=-7.81D+00 OVMax= 6.05D-01

 Cycle   4  Pass 1  IDiag  1:
 RMSU=  1.62D-02    CP:  5.12D-01  2.37D+00  1.65D-01
 E= -1909.75729440739     Delta-E=       -5.985278653965 Rises=F Damp=F
 DIIS: error= 1.09D-01 at cycle   4 NSaved=   4.
 NSaved= 4 IEnMin= 4 EnMin= -1909.75729440739     IErMin= 4 ErrMin= 1.09D-01
 ErrMax= 1.09D-01  0.00D+00 EMaxC= 1.00D-01 BMatC= 9.87D+00 BMatP= 3.17D+01
 IDIUse=3 WtCom= 0.00D+00 WtEn= 1.00D+00
 Coeff-Com: -0.208D+01 0.279D+01 0.318D-01 0.252D+00
 Coeff-En:   0.000D+00 0.000D+00 0.437D-01 0.956D+00
 Coeff:      0.000D+00 0.000D+00 0.437D-01 0.956D+00
 Gap=     0.834 Goal=   None    Shift=    0.000
 Gap=     0.610 Goal=   None    Shift=    0.000
 RMSDP=1.82D-02 MaxDP=2.57D+00 DE=-5.99D+00 OVMax= 5.94D-01

 Cycle   5  Pass 1  IDiag  1:
 RMSU=  1.46D-02    CP:  4.97D-01  3.00D+00  3.76D-01  5.27D-01
 E= -1907.72995496760     Delta-E=        2.027339439788 Rises=F Damp=F
 DIIS: error= 1.23D-01 at cycle   5 NSaved=   5.
 NSaved= 5 IEnMin= 4 EnMin= -1909.75729440739     IErMin= 4 ErrMin= 1.09D-01
 ErrMax= 1.23D-01  0.00D+00 EMaxC= 1.00D-01 BMatC= 1.77D+01 BMatP= 9.87D+00
 IDIUse=2 WtCom= 0.00D+00 WtEn= 1.00D+00
 Coeff-En:   0.000D+00 0.000D+00 0.000D+00 0.657D+00 0.343D+00
 Coeff:      0.000D+00 0.000D+00 0.000D+00 0.657D+00 0.343D+00
 Gap=     0.154 Goal=   None    Shift=    0.000
 Gap=     0.180 Goal=   None    Shift=    0.000
 RMSDP=1.55D-02 MaxDP=3.53D+00 DE= 2.03D+00 OVMax= 3.60D-01

 Cycle   6  Pass 1  IDiag  1:
 RMSU=  5.98D-03    CP:  4.57D-01  2.99D+00  1.84D-01  9.39D-01  1.75D-01
 E= -1911.22254345519     Delta-E=       -3.492588487584 Rises=F Damp=F
 DIIS: error= 2.26D-02 at cycle   6 NSaved=   6.
 NSaved= 6 IEnMin= 6 EnMin= -1911.22254345519     IErMin= 6 ErrMin= 2.26D-02
 ErrMax= 2.26D-02  0.00D+00 EMaxC= 1.00D-01 BMatC= 8.32D-01 BMatP= 9.87D+00
 IDIUse=3 WtCom= 7.74D-01 WtEn= 2.26D-01
 Coeff-Com: -0.745D+00 0.101D+01-0.171D-01 0.113D+00-0.111D+00 0.752D+00
 Coeff-En:   0.000D+00 0.000D+00 0.000D+00 0.105D+00 0.000D+00 0.895D+00
 Coeff:     -0.577D+00 0.780D+00-0.132D-01 0.111D+00-0.861D-01 0.785D+00
 Gap=     0.153 Goal=   None    Shift=    0.000
 Gap=     0.116 Goal=   None    Shift=    0.000
 RMSDP=2.14D-03 MaxDP=2.19D-01 DE=-3.49D+00 OVMax= 6.73D-02

 Cycle   7  Pass 1  IDiag  1:
 RMSU=  1.64D-03    CP:  4.68D-01  2.89D+00  1.94D-01  9.57D-01  1.03D-01
                    CP:  9.17D-01
 E= -1911.33150414461     Delta-E=       -0.108960689427 Rises=F Damp=F
 DIIS: error= 1.31D-02 at cycle   7 NSaved=   7.
 NSaved= 7 IEnMin= 7 EnMin= -1911.33150414461     IErMin= 7 ErrMin= 1.31D-02
 ErrMax= 1.31D-02  0.00D+00 EMaxC= 1.00D-01 BMatC= 3.01D-01 BMatP= 8.32D-01
 IDIUse=3 WtCom= 8.69D-01 WtEn= 1.31D-01
 Coeff-Com: -0.176D+00 0.251D+00-0.645D-01 0.186D-01-0.365D-01 0.338D+00
 Coeff-Com:  0.669D+00
 Coeff-En:   0.000D+00 0.000D+00 0.000D+00 0.000D+00 0.000D+00 0.000D+00
 Coeff-En:   0.100D+01
 Coeff:     -0.153D+00 0.218D+00-0.561D-01 0.162D-01-0.318D-01 0.294D+00
 Coeff:      0.712D+00
 Gap=     0.147 Goal=   None    Shift=    0.000
 Gap=     0.125 Goal=   None    Shift=    0.000
 RMSDP=2.25D-03 MaxDP=1.59D-01 DE=-1.09D-01 OVMax= 3.60D-02

 Cycle   8  Pass 1  IDiag  1:
 RMSU=  1.79D-03    CP:  4.50D-01  2.75D+00  1.76D-01  9.80D-01  1.05D-01
                    CP:  9.34D-01  5.51D-01
 E= -1911.39856496889     Delta-E=       -0.067060824280 Rises=F Damp=F
 DIIS: error= 2.61D-03 at cycle   8 NSaved=   8.
 NSaved= 8 IEnMin= 8 EnMin= -1911.39856496889     IErMin= 8 ErrMin= 2.61D-03
 ErrMax= 2.61D-03  0.00D+00 EMaxC= 1.00D-01 BMatC= 1.22D-02 BMatP= 3.01D-01
 IDIUse=3 WtCom= 9.74D-01 WtEn= 2.61D-02
 Coeff-Com: -0.311D-01 0.425D-01-0.288D-02-0.120D-01 0.206D-01-0.188D+00
 Coeff-Com: -0.112D+00 0.128D+01
 Coeff-En:   0.000D+00 0.000D+00 0.000D+00 0.000D+00 0.000D+00 0.000D+00
 Coeff-En:   0.000D+00 0.100D+01
 Coeff:     -0.303D-01 0.414D-01-0.280D-02-0.117D-01 0.201D-01-0.183D+00
 Coeff:     -0.109D+00 0.128D+01
 Gap=     0.148 Goal=   None    Shift=    0.000
 Gap=     0.130 Goal=   None    Shift=    0.000
 RMSDP=7.61D-04 MaxDP=6.72D-02 DE=-6.71D-02 OVMax= 1.74D-02

 Cycle   9  Pass 1  IDiag  1:
 RMSU=  2.46D-04    CP:  4.42D-01  2.74D+00  1.71D-01  9.84D-01  1.06D-01
                    CP:  9.45D-01  5.38D-01  1.35D+00
 E= -1911.40178320079     Delta-E=       -0.003218231902 Rises=F Damp=F
 DIIS: error= 8.89D-04 at cycle   9 NSaved=   9.
 NSaved= 9 IEnMin= 9 EnMin= -1911.40178320079     IErMin= 9 ErrMin= 8.89D-04
 ErrMax= 8.89D-04  0.00D+00 EMaxC= 1.00D-01 BMatC= 1.20D-03 BMatP= 1.22D-02
 IDIUse=3 WtCom= 9.91D-01 WtEn= 8.89D-03
 Coeff-Com: -0.104D-01 0.137D-01-0.384D-03-0.368D-02 0.600D-02-0.463D-01
 Coeff-Com: -0.839D-01 0.353D+00 0.772D+00
 Coeff-En:   0.000D+00 0.000D+00 0.000D+00 0.000D+00 0.000D+00 0.000D+00
 Coeff-En:   0.000D+00 0.000D+00 0.100D+01
 Coeff:     -0.103D-01 0.136D-01-0.381D-03-0.365D-02 0.595D-02-0.459D-01
 Coeff:     -0.831D-01 0.349D+00 0.774D+00
 Gap=     0.149 Goal=   None    Shift=    0.000
 Gap=     0.130 Goal=   None    Shift=    0.000
 RMSDP=1.30D-04 MaxDP=1.06D-02 DE=-3.22D-03 OVMax= 8.20D-03

 Cycle  10  Pass 1  IDiag  1:
 RMSU=  7.86D-05    CP:  4.41D-01  2.73D+00  1.70D-01  9.84D-01  1.07D-01
                    CP:  9.47D-01  5.05D-01  1.38D+00  1.15D+00
 E= -1911.40210592836     Delta-E=       -0.000322727567 Rises=F Damp=F
 DIIS: error= 3.28D-04 at cycle  10 NSaved=  10.
 NSaved=10 IEnMin=10 EnMin= -1911.40210592836     IErMin=10 ErrMin= 3.28D-04
 ErrMax= 3.28D-04  0.00D+00 EMaxC= 1.00D-01 BMatC= 1.94D-04 BMatP= 1.20D-03
 IDIUse=3 WtCom= 9.97D-01 WtEn= 3.28D-03
 Coeff-Com:  0.369D-02-0.526D-02-0.247D-03 0.111D-02-0.195D-02 0.248D-01
 Coeff-Com: -0.201D-01-0.141D+00 0.362D+00 0.777D+00
 Coeff-En:   0.000D+00 0.000D+00 0.000D+00 0.000D+00 0.000D+00 0.000D+00
 Coeff-En:   0.000D+00 0.000D+00 0.000D+00 0.100D+01
 Coeff:      0.368D-02-0.524D-02-0.246D-03 0.110D-02-0.195D-02 0.247D-01
 Coeff:     -0.200D-01-0.141D+00 0.361D+00 0.778D+00
 Gap=     0.150 Goal=   None    Shift=    0.000
 Gap=     0.131 Goal=   None    Shift=    0.000
 RMSDP=9.62D-05 MaxDP=6.75D-03 DE=-3.23D-04 OVMax= 5.51D-03

 Cycle  11  Pass 1  IDiag  1:
 RMSU=  4.45D-05    CP:  4.41D-01  2.73D+00  1.69D-01  9.85D-01  1.07D-01
                    CP:  9.47D-01  4.81D-01  1.41D+00  1.34D+00  1.20D+00
 E= -1911.40219000621     Delta-E=       -0.000084077849 Rises=F Damp=F
 DIIS: error= 1.30D-04 at cycle  11 NSaved=  11.
 NSaved=11 IEnMin=11 EnMin= -1911.40219000621     IErMin=11 ErrMin= 1.30D-04
 ErrMax= 1.30D-04  0.00D+00 EMaxC= 1.00D-01 BMatC= 2.82D-05 BMatP= 1.94D-04
 IDIUse=3 WtCom= 9.99D-01 WtEn= 1.30D-03
 Coeff-Com:  0.698D-03-0.107D-02 0.149D-03 0.352D-03-0.565D-03 0.340D-02
 Coeff-Com:  0.753D-02-0.380D-01 0.330D-02 0.113D+00 0.911D+00
 Coeff-En:   0.000D+00 0.000D+00 0.000D+00 0.000D+00 0.000D+00 0.000D+00
 Coeff-En:   0.000D+00 0.000D+00 0.000D+00 0.000D+00 0.100D+01
 Coeff:      0.697D-03-0.107D-02 0.149D-03 0.351D-03-0.565D-03 0.340D-02
 Coeff:      0.752D-02-0.379D-01 0.329D-02 0.113D+00 0.911D+00
 Gap=     0.150 Goal=   None    Shift=    0.000
 Gap=     0.131 Goal=   None    Shift=    0.000
 RMSDP=4.34D-05 MaxDP=2.22D-03 DE=-8.41D-05 OVMax= 4.15D-03

 Cycle  12  Pass 1  IDiag  1:
 RMSU=  1.67D-05    CP:  4.41D-01  2.73D+00  1.70D-01  9.85D-01  1.07D-01
                    CP:  9.46D-01  4.82D-01  1.40D+00  1.41D+00  1.48D+00
                    CP:  1.47D+00
 E= -1911.40221397376     Delta-E=       -0.000023967550 Rises=F Damp=F
 DIIS: error= 9.60D-05 at cycle  12 NSaved=  12.
 NSaved=12 IEnMin=12 EnMin= -1911.40221397376     IErMin=12 ErrMin= 9.60D-05
 ErrMax= 9.60D-05  0.00D+00 EMaxC= 1.00D-01 BMatC= 4.13D-06 BMatP= 2.82D-05
 IDIUse=1 WtCom= 1.00D+00 WtEn= 0.00D+00
 Coeff-Com: -0.440D-03 0.606D-03 0.138D-04-0.136D-03 0.165D-03-0.216D-02
 Coeff-Com:  0.700D-02 0.762D-02-0.579D-01-0.130D+00-0.795D-04 0.118D+01
 Coeff:     -0.440D-03 0.606D-03 0.138D-04-0.136D-03 0.165D-03-0.216D-02
 Coeff:      0.700D-02 0.762D-02-0.579D-01-0.130D+00-0.795D-04 0.118D+01
 Gap=     0.150 Goal=   None    Shift=    0.000
 Gap=     0.131 Goal=   None    Shift=    0.000
 RMSDP=4.31D-05 MaxDP=2.02D-03 DE=-2.40D-05 OVMax= 4.63D-03

 Cycle  13  Pass 1  IDiag  1:
 RMSU=  9.02D-06    CP:  4.41D-01  2.73D+00  1.70D-01  9.85D-01  1.07D-01
                    CP:  9.45D-01  4.82D-01  1.40D+00  1.48D+00  1.74D+00
                    CP:  2.00D+00  2.14D+00
 E= -1911.40223003332     Delta-E=       -0.000016059555 Rises=F Damp=F
 DIIS: error= 6.74D-05 at cycle  13 NSaved=  13.
 NSaved=13 IEnMin=13 EnMin= -1911.40223003332     IErMin=13 ErrMin= 6.74D-05
 ErrMax= 6.74D-05  0.00D+00 EMaxC= 1.00D-01 BMatC= 1.72D-06 BMatP= 4.13D-06
 IDIUse=1 WtCom= 1.00D+00 WtEn= 0.00D+00
 Coeff-Com: -0.494D-03 0.723D-03-0.762D-04-0.911D-04 0.765D-04-0.411D-04
 Coeff-Com: -0.208D-02 0.880D-02-0.576D-02-0.635D-01-0.322D+00 0.169D+00
 Coeff-Com:  0.122D+01
 Coeff:     -0.494D-03 0.723D-03-0.762D-04-0.911D-04 0.765D-04-0.411D-04
 Coeff:     -0.208D-02 0.880D-02-0.576D-02-0.635D-01-0.322D+00 0.169D+00
 Coeff:      0.122D+01
 Gap=     0.150 Goal=   None    Shift=    0.000
 Gap=     0.131 Goal=   None    Shift=    0.000
 RMSDP=3.94D-05 MaxDP=1.29D-03 DE=-1.61D-05 OVMax= 4.83D-03

 Cycle  14  Pass 1  IDiag  1:
 RMSU=  8.74D-06    CP:  4.41D-01  2.73D+00  1.70D-01  9.84D-01  1.07D-01
                    CP:  9.45D-01  4.82D-01  1.39D+00  1.54D+00  1.96D+00
                    CP:  2.46D+00  3.00D+00  2.23D+00
 E= -1911.40224042489     Delta-E=       -0.000010391575 Rises=F Damp=F
 DIIS: error= 4.74D-05 at cycle  14 NSaved=  14.
 NSaved=14 IEnMin=14 EnMin= -1911.40224042489     IErMin=14 ErrMin= 4.74D-05
 ErrMax= 4.74D-05  0.00D+00 EMaxC= 1.00D-01 BMatC= 1.13D-06 BMatP= 1.72D-06
 IDIUse=1 WtCom= 1.00D+00 WtEn= 0.00D+00
 Coeff-Com:  0.537D-04-0.503D-04 0.298D-04 0.175D-05 0.525D-04-0.838D-03
 Coeff-Com: -0.422D-02 0.698D-02 0.159D-01 0.116D-01-0.192D-01-0.389D+00
 Coeff-Com:  0.697D-01 0.131D+01
 Coeff:      0.537D-04-0.503D-04 0.298D-04 0.175D-05 0.525D-04-0.838D-03
 Coeff:     -0.422D-02 0.698D-02 0.159D-01 0.116D-01-0.192D-01-0.389D+00
 Coeff:      0.697D-01 0.131D+01
 Gap=     0.150 Goal=   None    Shift=    0.000
 Gap=     0.131 Goal=   None    Shift=    0.000
 RMSDP=3.29D-05 MaxDP=1.21D-03 DE=-1.04D-05 OVMax= 4.33D-03

 Cycle  15  Pass 1  IDiag  1:
 RMSU=  9.73D-06    CP:  4.41D-01  2.73D+00  1.70D-01  9.84D-01  1.07D-01
                    CP:  9.46D-01  4.81D-01  1.40D+00  1.58D+00  2.13D+00
                    CP:  2.80D+00  3.00D+00  3.00D+00  3.00D+00
 E= -1911.40224599965     Delta-E=       -0.000005574762 Rises=F Damp=F
 DIIS: error= 3.25D-05 at cycle  15 NSaved=  15.
 NSaved=15 IEnMin=15 EnMin= -1911.40224599965     IErMin=15 ErrMin= 3.25D-05
 ErrMax= 3.25D-05  0.00D+00 EMaxC= 1.00D-01 BMatC= 3.99D-07 BMatP= 1.13D-06
 IDIUse=1 WtCom= 1.00D+00 WtEn= 0.00D+00
 Coeff-Com:  0.252D-03-0.345D-03 0.618D-04 0.331D-04 0.260D-04-0.825D-03
 Coeff-Com: -0.191D-02 0.244D-02 0.119D-01 0.324D-01 0.133D+00-0.337D+00
 Coeff-Com: -0.480D+00 0.862D+00 0.778D+00
 Coeff:      0.252D-03-0.345D-03 0.618D-04 0.331D-04 0.260D-04-0.825D-03
 Coeff:     -0.191D-02 0.244D-02 0.119D-01 0.324D-01 0.133D+00-0.337D+00
 Coeff:     -0.480D+00 0.862D+00 0.778D+00
 Gap=     0.150 Goal=   None    Shift=    0.000
 Gap=     0.131 Goal=   None    Shift=    0.000
 RMSDP=1.98D-05 MaxDP=7.59D-04 DE=-5.57D-06 OVMax= 2.88D-03

 Cycle  16  Pass 1  IDiag  1:
 RMSU=  1.32D-05    CP:  4.41D-01  2.73D+00  1.70D-01  9.84D-01  1.07D-01
                    CP:  9.46D-01  4.81D-01  1.40D+00  1.60D+00  2.21D+00
                    CP:  2.99D+00  3.00D+00  3.00D+00  3.00D+00  1.79D+00
 E= -1911.40224810777     Delta-E=       -0.000002108120 Rises=F Damp=F
 DIIS: error= 2.72D-05 at cycle  16 NSaved=  16.
 NSaved=16 IEnMin=16 EnMin= -1911.40224810777     IErMin=16 ErrMin= 2.72D-05
 ErrMax= 2.72D-05  0.00D+00 EMaxC= 1.00D-01 BMatC= 2.16D-07 BMatP= 3.99D-07
 IDIUse=1 WtCom= 1.00D+00 WtEn= 0.00D+00
 Coeff-Com: -0.198D-05-0.463D-05-0.122D-04 0.949D-05-0.316D-04 0.568D-03
 Coeff-Com:  0.165D-02-0.336D-02-0.396D-02 0.633D-02 0.166D-01 0.469D-01
 Coeff-Com:  0.108D-01-0.354D+00 0.316D-01 0.125D+01
 Coeff:     -0.198D-05-0.463D-05-0.122D-04 0.949D-05-0.316D-04 0.568D-03
 Coeff:      0.165D-02-0.336D-02-0.396D-02 0.633D-02 0.166D-01 0.469D-01
 Coeff:      0.108D-01-0.354D+00 0.316D-01 0.125D+01
 Gap=     0.150 Goal=   None    Shift=    0.000
 Gap=     0.131 Goal=   None    Shift=    0.000
 RMSDP=1.13D-05 MaxDP=3.66D-04 DE=-2.11D-06 OVMax= 2.09D-03

 Cycle  17  Pass 1  IDiag  1:
 RMSU=  5.04D-06    CP:  4.41D-01  2.73D+00  1.70D-01  9.84D-01  1.07D-01
                    CP:  9.46D-01  4.81D-01  1.40D+00  1.61D+00  2.25D+00
                    CP:  3.00D+00  3.00D+00  3.00D+00  3.00D+00  2.30D+00
                    CP:  1.60D+00
 E= -1911.40224918530     Delta-E=       -0.000001077528 Rises=F Damp=F
 DIIS: error= 2.31D-05 at cycle  17 NSaved=  17.
 NSaved=17 IEnMin=17 EnMin= -1911.40224918530     IErMin=17 ErrMin= 2.31D-05
 ErrMax= 2.31D-05  0.00D+00 EMaxC= 1.00D-01 BMatC= 7.72D-08 BMatP= 2.16D-07
 IDIUse=1 WtCom= 1.00D+00 WtEn= 0.00D+00
 Coeff-Com: -0.761D-04 0.101D-03-0.265D-04-0.919D-05-0.174D-04 0.435D-03
 Coeff-Com:  0.102D-02-0.174D-02-0.604D-02-0.866D-02-0.387D-01 0.941D-01
 Coeff-Com:  0.227D+00-0.411D+00-0.329D+00 0.220D+00 0.125D+01
 Coeff:     -0.761D-04 0.101D-03-0.265D-04-0.919D-05-0.174D-04 0.435D-03
 Coeff:      0.102D-02-0.174D-02-0.604D-02-0.866D-02-0.387D-01 0.941D-01
 Coeff:      0.227D+00-0.411D+00-0.329D+00 0.220D+00 0.125D+01
 Gap=     0.150 Goal=   None    Shift=    0.000
 Gap=     0.131 Goal=   None    Shift=    0.000
 RMSDP=1.03D-05 MaxDP=3.97D-04 DE=-1.08D-06 OVMax= 2.09D-03

 Cycle  18  Pass 1  IDiag  1:
 RMSU=  1.55D-06    CP:  4.41D-01  2.73D+00  1.70D-01  9.84D-01  1.07D-01
                    CP:  9.46D-01  4.81D-01  1.40D+00  1.61D+00  2.28D+00
                    CP:  3.00D+00  3.00D+00  3.00D+00  3.00D+00  2.70D+00
                    CP:  2.12D+00  2.20D+00
 E= -1911.40224995569     Delta-E=       -0.000000770390 Rises=F Damp=F
 DIIS: error= 1.94D-05 at cycle  18 NSaved=  18.
 NSaved=18 IEnMin=18 EnMin= -1911.40224995569     IErMin=18 ErrMin= 1.94D-05
 ErrMax= 1.94D-05  0.00D+00 EMaxC= 1.00D-01 BMatC= 5.45D-08 BMatP= 7.72D-08
 IDIUse=1 WtCom= 1.00D+00 WtEn= 0.00D+00
 Coeff-Com: -0.422D-04 0.607D-04 0.515D-07-0.145D-04 0.235D-04-0.394D-03
 Coeff-Com: -0.950D-03 0.241D-02-0.975D-03-0.802D-02-0.172D-01-0.247D-01
 Coeff-Com:  0.129D+00 0.739D-01-0.173D+00-0.793D+00 0.481D+00 0.133D+01
 Coeff:     -0.422D-04 0.607D-04 0.515D-07-0.145D-04 0.235D-04-0.394D-03
 Coeff:     -0.950D-03 0.241D-02-0.975D-03-0.802D-02-0.172D-01-0.247D-01
 Coeff:      0.129D+00 0.739D-01-0.173D+00-0.793D+00 0.481D+00 0.133D+01
 Gap=     0.150 Goal=   None    Shift=    0.000
 Gap=     0.131 Goal=   None    Shift=    0.000
 RMSDP=1.07D-05 MaxDP=4.47D-04 DE=-7.70D-07 OVMax= 2.38D-03

 Cycle  19  Pass 1  IDiag  1:
 RMSU=  3.66D-06    CP:  4.41D-01  2.73D+00  1.70D-01  9.84D-01  1.07D-01
                    CP:  9.46D-01  4.81D-01  1.40D+00  1.61D+00  2.29D+00
                    CP:  3.00D+00  3.00D+00  3.00D+00  3.00D+00  3.00D+00
                    CP:  2.59D+00  3.00D+00  2.69D+00
 E= -1911.40225056442     Delta-E=       -0.000000608727 Rises=F Damp=F
 DIIS: error= 1.46D-05 at cycle  19 NSaved=  19.
 NSaved=19 IEnMin=19 EnMin= -1911.40225056442     IErMin=19 ErrMin= 1.46D-05
 ErrMax= 1.46D-05  0.00D+00 EMaxC= 1.00D-01 BMatC= 2.59D-08 BMatP= 5.45D-08
 IDIUse=1 WtCom= 1.00D+00 WtEn= 0.00D+00
 Coeff-Com: -0.730D-05 0.124D-04 0.141D-04-0.419D-05 0.223D-04-0.410D-03
 Coeff-Com: -0.851D-03 0.198D-02 0.174D-02 0.209D-02 0.193D-01-0.685D-01
 Coeff-Com: -0.374D-01 0.205D+00 0.106D+00-0.305D+00-0.642D+00 0.429D+00
 Coeff-Com:  0.129D+01
 Coeff:     -0.730D-05 0.124D-04 0.141D-04-0.419D-05 0.223D-04-0.410D-03
 Coeff:     -0.851D-03 0.198D-02 0.174D-02 0.209D-02 0.193D-01-0.685D-01
 Coeff:     -0.374D-01 0.205D+00 0.106D+00-0.305D+00-0.642D+00 0.429D+00
 Coeff:      0.129D+01
 Gap=     0.150 Goal=   None    Shift=    0.000
 Gap=     0.131 Goal=   None    Shift=    0.000
 RMSDP=8.71D-06 MaxDP=3.84D-04 DE=-6.09D-07 OVMax= 2.09D-03

 Cycle  20  Pass 1  IDiag  1:
 RMSU=  3.49D-06    CP:  4.41D-01  2.73D+00  1.70D-01  9.84D-01  1.07D-01
                    CP:  9.46D-01  4.81D-01  1.40D+00  1.60D+00  2.29D+00
                    CP:  3.00D+00  3.00D+00  3.00D+00  3.00D+00  3.00D+00
                    CP:  2.91D+00  3.00D+00  3.00D+00  2.75D+00
 E= -1911.40225089726     Delta-E=       -0.000000332837 Rises=F Damp=F
 DIIS: error= 1.06D-05 at cycle  20 NSaved=  20.
 NSaved=20 IEnMin=20 EnMin= -1911.40225089726     IErMin=20 ErrMin= 1.06D-05
 ErrMax= 1.06D-05  0.00D+00 EMaxC= 1.00D-01 BMatC= 1.12D-08 BMatP= 2.59D-08
 IDIUse=1 WtCom= 1.00D+00 WtEn= 0.00D+00
 Coeff-Com:  0.339D-05-0.551D-05-0.150D-05 0.879D-05-0.150D-04 0.269D-03
 Coeff-Com:  0.469D-03-0.149D-02 0.492D-03 0.481D-02 0.105D-01-0.390D-02
 Coeff-Com: -0.304D-01-0.662D-01 0.786D-01 0.439D+00-0.367D+00-0.508D+00
 Coeff-Com:  0.128D+00 0.131D+01
 Coeff:      0.339D-05-0.551D-05-0.150D-05 0.879D-05-0.150D-04 0.269D-03
 Coeff:      0.469D-03-0.149D-02 0.492D-03 0.481D-02 0.105D-01-0.390D-02
 Coeff:     -0.304D-01-0.662D-01 0.786D-01 0.439D+00-0.367D+00-0.508D+00
 Coeff:      0.128D+00 0.131D+01
 Gap=     0.150 Goal=   None    Shift=    0.000
 Gap=     0.131 Goal=   None    Shift=    0.000
 RMSDP=4.61D-06 MaxDP=2.24D-04 DE=-3.33D-07 OVMax= 1.32D-03

 Cycle  21  Pass 1  IDiag  1:
 Restarting incremental Fock formation.
 E= -1911.40225103635     Delta-E=       -0.000000139096 Rises=F Damp=F
 DIIS: error= 7.98D-06 at cycle  21 NSaved=  20.
 NSaved=20 IEnMin=20 EnMin= -1911.40225103635     IErMin=20 ErrMin= 7.98D-06
 ErrMax= 7.98D-06  0.00D+00 EMaxC= 1.00D-01 BMatC= 6.47D-09 BMatP= 1.12D-08
 IDIUse=1 WtCom= 1.00D+00 WtEn= 0.00D+00
 Coeff-Com: -0.670D-06-0.299D-05-0.646D-06-0.101D-05-0.275D-04 0.372D-04
 Coeff-Com:  0.298D-03-0.576D-03-0.504D-02-0.118D-01 0.234D-01 0.497D-01
 Coeff-Com: -0.585D-01-0.749D-01-0.102D+00 0.286D+00 0.312D+00-0.501D+00
 Coeff-Com: -0.122D+01 0.231D+01
 Coeff:     -0.670D-06-0.299D-05-0.646D-06-0.101D-05-0.275D-04 0.372D-04
 Coeff:      0.298D-03-0.576D-03-0.504D-02-0.118D-01 0.234D-01 0.497D-01
 Coeff:     -0.585D-01-0.749D-01-0.102D+00 0.286D+00 0.312D+00-0.501D+00
 Coeff:     -0.122D+01 0.231D+01
 Gap=     0.150 Goal=   None    Shift=    0.000
 Gap=     0.131 Goal=   None    Shift=    0.000
 RMSDP=4.28D-06 MaxDP=2.01D-04 DE=-1.39D-07 OVMax= 1.31D-03

 Cycle  22  Pass 1  IDiag  1:
 RMSU=  4.28D-06    CP:  1.00D+00
 E= -1911.40225114511     Delta-E=       -0.000000108756 Rises=F Damp=F
 DIIS: error= 5.42D-06 at cycle  22 NSaved=  20.
 NSaved=20 IEnMin=20 EnMin= -1911.40225114511     IErMin=20 ErrMin= 5.42D-06
 ErrMax= 5.42D-06  0.00D+00 EMaxC= 1.00D-01 BMatC= 3.58D-09 BMatP= 6.47D-09
 IDIUse=1 WtCom= 1.00D+00 WtEn= 0.00D+00
 Coeff-Com:  0.441D-06-0.642D-05 0.970D-05-0.188D-03-0.267D-03 0.105D-02
 Coeff-Com: -0.483D-03-0.467D-02-0.894D-02 0.785D-02 0.399D-01 0.124D-01
 Coeff-Com: -0.639D-01-0.270D+00 0.226D+00 0.461D+00-0.198D+00-0.132D+01
 Coeff-Com:  0.976D+00 0.114D+01
 Coeff:      0.441D-06-0.642D-05 0.970D-05-0.188D-03-0.267D-03 0.105D-02
 Coeff:     -0.483D-03-0.467D-02-0.894D-02 0.785D-02 0.399D-01 0.124D-01
 Coeff:     -0.639D-01-0.270D+00 0.226D+00 0.461D+00-0.198D+00-0.132D+01
 Coeff:      0.976D+00 0.114D+01
 Gap=     0.150 Goal=   None    Shift=    0.000
 Gap=     0.131 Goal=   None    Shift=    0.000
 RMSDP=3.16D-06 MaxDP=1.55D-04 DE=-1.09D-07 OVMax= 9.59D-04

 Cycle  23  Pass 1  IDiag  1:
 RMSU=  5.94D-07    CP:  1.00D+00  1.72D+00
 E= -1911.40225120007     Delta-E=       -0.000000054963 Rises=F Damp=F
 DIIS: error= 3.44D-06 at cycle  23 NSaved=  20.
 NSaved=20 IEnMin=20 EnMin= -1911.40225120007     IErMin=20 ErrMin= 3.44D-06
 ErrMax= 3.44D-06  0.00D+00 EMaxC= 1.00D-01 BMatC= 2.03D-09 BMatP= 3.58D-09
 IDIUse=1 WtCom= 1.00D+00 WtEn= 0.00D+00
 Coeff-Com: -0.267D-05 0.171D-05 0.547D-05-0.673D-04-0.126D-03 0.347D-03
 Coeff-Com:  0.304D-02 0.674D-02-0.168D-01-0.220D-01 0.357D-01 0.422D-01
 Coeff-Com:  0.294D-01-0.209D+00-0.835D-01 0.359D+00 0.540D+00-0.158D+01
 Coeff-Com:  0.444D+00 0.145D+01
 Coeff:     -0.267D-05 0.171D-05 0.547D-05-0.673D-04-0.126D-03 0.347D-03
 Coeff:      0.304D-02 0.674D-02-0.168D-01-0.220D-01 0.357D-01 0.422D-01
 Coeff:      0.294D-01-0.209D+00-0.835D-01 0.359D+00 0.540D+00-0.158D+01
 Coeff:      0.444D+00 0.145D+01
 Gap=     0.150 Goal=   None    Shift=    0.000
 Gap=     0.131 Goal=   None    Shift=    0.000
 RMSDP=3.34D-06 MaxDP=1.77D-04 DE=-5.50D-08 OVMax= 1.00D-03

 Cycle  24  Pass 1  IDiag  1:
 RMSU=  4.51D-07    CP:  1.00D+00  2.46D+00  2.80D+00
 E= -1911.40225123480     Delta-E=       -0.000000034729 Rises=F Damp=F
 DIIS: error= 1.55D-06 at cycle  24 NSaved=  20.
 NSaved=20 IEnMin=20 EnMin= -1911.40225123480     IErMin=20 ErrMin= 1.55D-06
 ErrMax= 1.55D-06  0.00D+00 EMaxC= 1.00D-01 BMatC= 7.18D-10 BMatP= 2.03D-09
 IDIUse=1 WtCom= 1.00D+00 WtEn= 0.00D+00
 Coeff-Com: -0.235D-06 0.375D-04 0.499D-04-0.248D-03 0.384D-03 0.212D-02
 Coeff-Com:  0.605D-02-0.905D-02-0.244D-01 0.144D-01 0.407D-01 0.874D-01
 Coeff-Com: -0.156D+00-0.157D+00 0.180D+00 0.654D+00-0.859D+00-0.317D+00
 Coeff-Com:  0.490D+00 0.105D+01
 Coeff:     -0.235D-06 0.375D-04 0.499D-04-0.248D-03 0.384D-03 0.212D-02
 Coeff:      0.605D-02-0.905D-02-0.244D-01 0.144D-01 0.407D-01 0.874D-01
 Coeff:     -0.156D+00-0.157D+00 0.180D+00 0.654D+00-0.859D+00-0.317D+00
 Coeff:      0.490D+00 0.105D+01
 Gap=     0.150 Goal=   None    Shift=    0.000
 Gap=     0.131 Goal=   None    Shift=    0.000
 RMSDP=1.46D-06 MaxDP=8.47D-05 DE=-3.47D-08 OVMax= 4.10D-04

 Cycle  25  Pass 1  IDiag  1:
 RMSU=  6.67D-07    CP:  1.00D+00  2.74D+00  3.00D+00  1.63D+00
 E= -1911.40225124287     Delta-E=       -0.000000008074 Rises=F Damp=F
 DIIS: error= 1.13D-06 at cycle  25 NSaved=  20.
 NSaved=20 IEnMin=20 EnMin= -1911.40225124287     IErMin=20 ErrMin= 1.13D-06
 ErrMax= 1.13D-06  0.00D+00 EMaxC= 1.00D-01 BMatC= 3.21D-10 BMatP= 7.18D-10
 IDIUse=1 WtCom= 1.00D+00 WtEn= 0.00D+00
 Coeff-Com: -0.168D-05 0.467D-04 0.382D-04-0.325D-04-0.911D-03-0.607D-03
 Coeff-Com:  0.472D-02-0.745D-04-0.873D-02-0.479D-02 0.733D-02 0.490D-01
 Coeff-Com: -0.601D-02-0.124D+00 0.764D-02 0.423D+00-0.373D+00-0.475D+00
 Coeff-Com:  0.477D+00 0.102D+01
 Coeff:     -0.168D-05 0.467D-04 0.382D-04-0.325D-04-0.911D-03-0.607D-03
 Coeff:      0.472D-02-0.745D-04-0.873D-02-0.479D-02 0.733D-02 0.490D-01
 Coeff:     -0.601D-02-0.124D+00 0.764D-02 0.423D+00-0.373D+00-0.475D+00
 Coeff:      0.477D+00 0.102D+01
 Gap=     0.150 Goal=   None    Shift=    0.000
 Gap=     0.131 Goal=   None    Shift=    0.000
 RMSDP=8.77D-07 MaxDP=5.37D-05 DE=-8.07D-09 OVMax= 2.30D-04

 Cycle  26  Pass 1  IDiag  1:
 RMSU=  1.67D-07    CP:  1.00D+00  2.88D+00  3.00D+00  2.21D+00  1.79D+00
 E= -1911.40225124560     Delta-E=       -0.000000002727 Rises=F Damp=F
 DIIS: error= 7.12D-07 at cycle  26 NSaved=  20.
 NSaved=20 IEnMin=20 EnMin= -1911.40225124560     IErMin=20 ErrMin= 7.12D-07
 ErrMax= 7.12D-07  0.00D+00 EMaxC= 1.00D-01 BMatC= 1.19D-10 BMatP= 3.21D-10
 IDIUse=1 WtCom= 1.00D+00 WtEn= 0.00D+00
 Coeff-Com:  0.241D-04 0.352D-04-0.214D-03-0.794D-03-0.247D-02 0.560D-02
 Coeff-Com:  0.856D-02-0.141D-01-0.151D-01-0.589D-02 0.672D-01 0.169D-01
 Coeff-Com: -0.112D+00-0.123D+00 0.364D+00-0.562D-01-0.320D+00-0.153D+00
 Coeff-Com:  0.402D+00 0.938D+00
 Coeff:      0.241D-04 0.352D-04-0.214D-03-0.794D-03-0.247D-02 0.560D-02
 Coeff:      0.856D-02-0.141D-01-0.151D-01-0.589D-02 0.672D-01 0.169D-01
 Coeff:     -0.112D+00-0.123D+00 0.364D+00-0.562D-01-0.320D+00-0.153D+00
 Coeff:      0.402D+00 0.938D+00
 Gap=     0.150 Goal=   None    Shift=    0.000
 Gap=     0.131 Goal=   None    Shift=    0.000
 RMSDP=5.05D-07 MaxDP=3.20D-05 DE=-2.73D-09 OVMax= 1.34D-04

 Cycle  27  Pass 1  IDiag  1:
 RMSU=  9.30D-08    CP:  1.00D+00  2.97D+00  3.00D+00  2.60D+00  2.20D+00
                    CP:  1.84D+00
 E= -1911.40225124645     Delta-E=       -0.000000000852 Rises=F Damp=F
 DIIS: error= 4.32D-07 at cycle  27 NSaved=  20.
 NSaved=20 IEnMin=20 EnMin= -1911.40225124645     IErMin=20 ErrMin= 4.32D-07
 ErrMax= 4.32D-07  0.00D+00 EMaxC= 1.00D-01 BMatC= 4.00D-11 BMatP= 1.19D-10
 IDIUse=1 WtCom= 1.00D+00 WtEn= 0.00D+00
 Coeff-Com:  0.132D-05-0.189D-03-0.297D-04-0.638D-03 0.100D-02 0.385D-02
 Coeff-Com: -0.360D-02-0.523D-02-0.569D-02 0.139D-01 0.105D-01-0.420D-02
 Coeff-Com: -0.557D-01-0.285D-01 0.158D+00 0.924D-01-0.299D+00-0.369D+00
 Coeff-Com:  0.317D+00 0.118D+01
 Coeff:      0.132D-05-0.189D-03-0.297D-04-0.638D-03 0.100D-02 0.385D-02
 Coeff:     -0.360D-02-0.523D-02-0.569D-02 0.139D-01 0.105D-01-0.420D-02
 Coeff:     -0.557D-01-0.285D-01 0.158D+00 0.924D-01-0.299D+00-0.369D+00
 Coeff:      0.317D+00 0.118D+01
 Gap=     0.150 Goal=   None    Shift=    0.000
 Gap=     0.131 Goal=   None    Shift=    0.000
 RMSDP=3.16D-07 MaxDP=1.94D-05 DE=-8.52D-10 OVMax= 6.02D-05

 Cycle  28  Pass 1  IDiag  1:
 RMSU=  4.81D-08    CP:  1.00D+00  2.99D+00  3.00D+00  2.87D+00  2.52D+00
                    CP:  2.76D+00  1.76D+00
 E= -1911.40225124670     Delta-E=       -0.000000000250 Rises=F Damp=F
 DIIS: error= 1.70D-07 at cycle  28 NSaved=  20.
 NSaved=20 IEnMin=20 EnMin= -1911.40225124670     IErMin=20 ErrMin= 1.70D-07
 ErrMax= 1.70D-07  0.00D+00 EMaxC= 1.00D-01 BMatC= 5.53D-12 BMatP= 4.00D-11
 IDIUse=1 WtCom= 1.00D+00 WtEn= 0.00D+00
 Coeff-Com:  0.438D-04 0.158D-04 0.492D-03-0.506D-03-0.205D-02 0.193D-02
 Coeff-Com:  0.271D-02 0.229D-02-0.919D-02-0.395D-02 0.111D-01 0.284D-01
 Coeff-Com: -0.455D-01-0.229D-01 0.459D-01 0.654D-01-0.461D-01-0.220D+00
 Coeff-Com: -0.108D+00 0.130D+01
 Coeff:      0.438D-04 0.158D-04 0.492D-03-0.506D-03-0.205D-02 0.193D-02
 Coeff:      0.271D-02 0.229D-02-0.919D-02-0.395D-02 0.111D-01 0.284D-01
 Coeff:     -0.455D-01-0.229D-01 0.459D-01 0.654D-01-0.461D-01-0.220D+00
 Coeff:     -0.108D+00 0.130D+01
 Gap=     0.150 Goal=   None    Shift=    0.000
 Gap=     0.131 Goal=   None    Shift=    0.000
 RMSDP=1.21D-07 MaxDP=8.42D-06 DE=-2.50D-10 OVMax= 2.37D-05

 Cycle  29  Pass 1  IDiag  1:
 RMSU=  3.25D-08    CP:  1.00D+00  3.00D+00  3.00D+00  2.97D+00  2.64D+00
                    CP:  3.00D+00  2.08D+00  1.70D+00
 E= -1911.40225124674     Delta-E=       -0.000000000041 Rises=F Damp=F
 DIIS: error= 5.45D-08 at cycle  29 NSaved=  20.
 NSaved=20 IEnMin=20 EnMin= -1911.40225124674     IErMin=20 ErrMin= 5.45D-08
 ErrMax= 5.45D-08  0.00D+00 EMaxC= 1.00D-01 BMatC= 1.28D-12 BMatP= 5.53D-12
 IDIUse=1 WtCom= 1.00D+00 WtEn= 0.00D+00
 Coeff-Com:  0.807D-05 0.847D-04-0.126D-03-0.331D-03 0.453D-03 0.650D-03
 Coeff-Com:  0.462D-03-0.356D-02-0.136D-02 0.613D-02 0.119D-01-0.210D-01
 Coeff-Com: -0.922D-02 0.104D-01 0.368D-01 0.138D-01-0.777D-01-0.109D+00
 Coeff-Com:  0.218D+00 0.924D+00
 Coeff:      0.807D-05 0.847D-04-0.126D-03-0.331D-03 0.453D-03 0.650D-03
 Coeff:      0.462D-03-0.356D-02-0.136D-02 0.613D-02 0.119D-01-0.210D-01
 Coeff:     -0.922D-02 0.104D-01 0.368D-01 0.138D-01-0.777D-01-0.109D+00
 Coeff:      0.218D+00 0.924D+00
 Gap=     0.150 Goal=   None    Shift=    0.000
 Gap=     0.131 Goal=   None    Shift=    0.000
 RMSDP=2.37D-08 MaxDP=1.57D-06 DE=-4.09D-11 OVMax= 3.88D-06

 Cycle  30  Pass 1  IDiag  1:
 RMSU=  9.26D-09    CP:  1.00D+00  3.00D+00  3.00D+00  2.98D+00  2.65D+00
                    CP:  3.00D+00  2.15D+00  1.95D+00  1.38D+00
 E= -1911.40225124675     Delta-E=       -0.000000000002 Rises=F Damp=F
 DIIS: error= 4.47D-08 at cycle  30 NSaved=  20.
 NSaved=20 IEnMin=20 EnMin= -1911.40225124675     IErMin=20 ErrMin= 4.47D-08
 ErrMax= 4.47D-08  0.00D+00 EMaxC= 1.00D-01 BMatC= 4.60D-13 BMatP= 1.28D-12
 IDIUse=1 WtCom= 1.00D+00 WtEn= 0.00D+00
 Coeff-Com: -0.144D-03 0.177D-03 0.444D-03-0.556D-03-0.604D-03-0.121D-03
 Coeff-Com:  0.234D-02 0.694D-03-0.409D-02-0.740D-02 0.192D-01-0.914D-03
 Coeff-Com: -0.202D-01-0.327D-02 0.262D-01 0.338D-01-0.645D-02-0.282D+00
 Coeff-Com: -0.655D-02 0.125D+01
 Coeff:     -0.144D-03 0.177D-03 0.444D-03-0.556D-03-0.604D-03-0.121D-03
 Coeff:      0.234D-02 0.694D-03-0.409D-02-0.740D-02 0.192D-01-0.914D-03
 Coeff:     -0.202D-01-0.327D-02 0.262D-01 0.338D-01-0.645D-02-0.282D+00
 Coeff:     -0.655D-02 0.125D+01
 Gap=     0.150 Goal=   None    Shift=    0.000
 Gap=     0.131 Goal=   None    Shift=    0.000
 RMSDP=2.13D-08 MaxDP=9.10D-07 DE=-1.82D-12 OVMax= 2.80D-06

 Cycle  31  Pass 1  IDiag  1:
 RMSU=  5.63D-09    CP:  1.00D+00  3.00D+00  3.00D+00  2.99D+00  2.66D+00
                    CP:  3.00D+00  2.21D+00  2.16D+00  1.74D+00  2.21D+00
 E= -1911.40225124671     Delta-E=        0.000000000041 Rises=F Damp=F
 DIIS: error= 3.24D-08 at cycle  31 NSaved=  20.
 NSaved=20 IEnMin=19 EnMin= -1911.40225124675     IErMin=20 ErrMin= 3.24D-08
 ErrMax= 3.24D-08  0.00D+00 EMaxC= 1.00D-01 BMatC= 2.37D-13 BMatP= 4.60D-13
 IDIUse=1 WtCom= 1.00D+00 WtEn= 0.00D+00
 Coeff-Com: -0.158D-04 0.269D-04-0.301D-04-0.354D-04 0.680D-05 0.260D-03
 Coeff-Com:  0.321D-03-0.503D-03-0.308D-02 0.328D-02 0.396D-02-0.147D-02
 Coeff-Com: -0.113D-01-0.746D-02 0.204D-01 0.419D-01-0.542D-01-0.310D+00
 Coeff-Com:  0.135D+00 0.118D+01
 Coeff:     -0.158D-04 0.269D-04-0.301D-04-0.354D-04 0.680D-05 0.260D-03
 Coeff:      0.321D-03-0.503D-03-0.308D-02 0.328D-02 0.396D-02-0.147D-02
 Coeff:     -0.113D-01-0.746D-02 0.204D-01 0.419D-01-0.542D-01-0.310D+00
 Coeff:      0.135D+00 0.118D+01
 Gap=     0.150 Goal=   None    Shift=    0.000
 Gap=     0.131 Goal=   None    Shift=    0.000
 RMSDP=1.43D-08 MaxDP=5.55D-07 DE= 4.09D-11 OVMax= 2.22D-06

 Cycle  32  Pass 1  IDiag  1:
 RMSU=  5.16D-09    CP:  1.00D+00  3.00D+00  3.00D+00  2.99D+00  2.66D+00
                    CP:  3.00D+00  2.23D+00  2.25D+00  1.90D+00  3.00D+00
                    CP:  2.04D+00
 E= -1911.40225124677     Delta-E=       -0.000000000065 Rises=F Damp=F
 DIIS: error= 2.27D-08 at cycle  32 NSaved=  20.
 NSaved=20 IEnMin=20 EnMin= -1911.40225124677     IErMin=20 ErrMin= 2.27D-08
 ErrMax= 2.27D-08  0.00D+00 EMaxC= 1.00D-01 BMatC= 1.60D-13 BMatP= 2.37D-13
 IDIUse=1 WtCom= 1.00D+00 WtEn= 0.00D+00
 Coeff-Com: -0.250D-04-0.141D-04 0.212D-05-0.633D-05 0.263D-03 0.449D-03
 Coeff-Com: -0.598D-03-0.379D-02 0.359D-02 0.437D-02-0.486D-03-0.123D-01
 Coeff-Com: -0.882D-02 0.200D-01 0.396D-01-0.225D-01-0.275D+00-0.273D+00
 Coeff-Com:  0.731D+00 0.797D+00
 Coeff:     -0.250D-04-0.141D-04 0.212D-05-0.633D-05 0.263D-03 0.449D-03
 Coeff:     -0.598D-03-0.379D-02 0.359D-02 0.437D-02-0.486D-03-0.123D-01
 Coeff:     -0.882D-02 0.200D-01 0.396D-01-0.225D-01-0.275D+00-0.273D+00
 Coeff:      0.731D+00 0.797D+00
 Gap=     0.150 Goal=   None    Shift=    0.000
 Gap=     0.131 Goal=   None    Shift=    0.000
 RMSDP=1.33D-08 MaxDP=5.50D-07 DE=-6.46D-11 OVMax= 2.09D-06

 Cycle  33  Pass 1  IDiag  1:
 RMSU=  6.63D-09    CP:  1.00D+00  3.00D+00  3.00D+00  2.99D+00  2.66D+00
                    CP:  3.00D+00  2.26D+00  2.34D+00  2.07D+00  3.00D+00
                    CP:  3.00D+00  2.33D+00
 E= -1911.40225124672     Delta-E=        0.000000000049 Rises=F Damp=F
 DIIS: error= 1.36D-08 at cycle  33 NSaved=  20.
 NSaved=20 IEnMin=19 EnMin= -1911.40225124677     IErMin=20 ErrMin= 1.36D-08
 ErrMax= 1.36D-08  0.00D+00 EMaxC= 1.00D-01 BMatC= 4.64D-14 BMatP= 1.60D-13
 IDIUse=1 WtCom= 1.00D+00 WtEn= 0.00D+00
 Coeff-Com:  0.107D-04 0.446D-04 0.629D-04-0.349D-03-0.425D-04 0.544D-03
 Coeff-Com:  0.815D-03-0.814D-03-0.162D-02 0.190D-03 0.419D-02 0.328D-02
 Coeff-Com: -0.756D-02-0.172D-01 0.353D-01 0.975D-01-0.154D+00-0.439D+00
 Coeff-Com:  0.113D+00 0.137D+01
 Coeff:      0.107D-04 0.446D-04 0.629D-04-0.349D-03-0.425D-04 0.544D-03
 Coeff:      0.815D-03-0.814D-03-0.162D-02 0.190D-03 0.419D-02 0.328D-02
 Coeff:     -0.756D-02-0.172D-01 0.353D-01 0.975D-01-0.154D+00-0.439D+00
 Coeff:      0.113D+00 0.137D+01
 Gap=     0.150 Goal=   None    Shift=    0.000
 Gap=     0.131 Goal=   None    Shift=    0.000
 RMSDP=1.25D-08 MaxDP=5.32D-07 DE= 4.91D-11 OVMax= 1.91D-06

 Cycle  34  Pass 1  IDiag  1:
 RMSU=  6.83D-09    CP:  1.00D+00  3.00D+00  3.00D+00  2.99D+00  2.66D+00
                    CP:  3.00D+00  2.27D+00  2.42D+00  2.18D+00  3.00D+00
                    CP:  3.00D+00  3.00D+00  1.85D+00
 E= -1911.40225124677     Delta-E=       -0.000000000045 Rises=F Damp=F
 DIIS: error= 5.18D-09 at cycle  34 NSaved=  20.
 NSaved=20 IEnMin=18 EnMin= -1911.40225124677     IErMin=20 ErrMin= 5.18D-09
 ErrMax= 5.18D-09  0.00D+00 EMaxC= 1.00D-01 BMatC= 1.81D-14 BMatP= 4.64D-14
 IDIUse=1 WtCom= 1.00D+00 WtEn= 0.00D+00
 Coeff-Com:  0.457D-04 0.757D-04-0.370D-03-0.206D-03 0.674D-03 0.150D-02
 Coeff-Com: -0.239D-02-0.126D-02 0.120D-02 0.411D-02 0.215D-02-0.834D-02
 Coeff-Com: -0.161D-01 0.310D-01 0.121D+00-0.492D-01-0.371D+00-0.148D+00
 Coeff-Com:  0.632D+00 0.804D+00
 Coeff:      0.457D-04 0.757D-04-0.370D-03-0.206D-03 0.674D-03 0.150D-02
 Coeff:     -0.239D-02-0.126D-02 0.120D-02 0.411D-02 0.215D-02-0.834D-02
 Coeff:     -0.161D-01 0.310D-01 0.121D+00-0.492D-01-0.371D+00-0.148D+00
 Coeff:      0.632D+00 0.804D+00
 Gap=     0.150 Goal=   None    Shift=    0.000
 Gap=     0.131 Goal=   None    Shift=    0.000
 RMSDP=4.98D-09 MaxDP=2.06D-07 DE=-4.55D-11 OVMax= 7.42D-07

 SCF Done:  E(UwB97XD) =  -1911.40225125     A.U. after   34 cycles
            NFock= 34  Conv=0.50D-08     -V/T= 3.6223
 <Sx>= 0.0000 <Sy>= 0.0000 <Sz>= 0.5000 <S**2>= 0.7813 S= 0.5155
 <L.S>=  0.00000000000    
 KE= 7.288921353796D+02 PE=-1.220607332755D+04 EE= 5.523308173589D+03
 Annihilation of the first spin contaminant:
 S**2 before annihilation     0.7813,   after     0.7508
 Leave Link  502 at Wed Feb 26 07:45:45 2025, MaxMem=  2097152000 cpu:            3195.5 elap:             803.8
 (Enter /nvme/h/buildsets/eb_nepheli/software/Gaussian/16.C.01-AVX2/g16/l508.exe)
 QCSCF skips out because SCF is already converged.
 Leave Link  508 at Wed Feb 26 07:45:45 2025, MaxMem=  2097152000 cpu:               0.0 elap:               0.1
 (Enter /nvme/h/buildsets/eb_nepheli/software/Gaussian/16.C.01-AVX2/g16/l601.exe)
 Copying SCF densities to generalized density rwf, IOpCl= 1 IROHF=0.

 **********************************************************************

            Population analysis using the SCF Density.

 **********************************************************************

 Orbital symmetries:
 Alpha Orbitals:
       Occupied  (A) (A) (A) (A) (A) (A) (A) (A) (A) (A) (A) (A)
                 (A) (A) (A) (A) (A) (A) (A) (A) (A) (A) (A) (A)
                 (A) (A) (A) (A) (A) (A) (A) (A) (A) (A) (A) (A)
                 (A) (A) (A) (A) (A) (A) (A) (A) (A) (A) (A) (A)
                 (A) (A) (A) (A) (A) (A) (A) (A) (A) (A) (A) (A)
                 (A) (A) (A) (A) (A) (A) (A) (A) (A) (A) (A) (A)
                 (A) (A) (A) (A) (A) (A) (A) (A) (A) (A) (A) (A)
                 (A) (A) (A) (A) (A) (A) (A) (A) (A) (A) (A) (A)
                 (A) (A) (A) (A) (A) (A) (A) (A) (A) (A) (A) (A)
                 (A) (A) (A) (A) (A) (A) (A) (A) (A) (A) (A) (A)
                 (A) (A) (A) (A)
       Virtual   (A) (A) (A) (A) (A) (A) (A) (A) (A) (A) (A) (A)
                 (A) (A) (A) (A) (A) (A) (A) (A) (A) (A) (A) (A)
                 (A) (A) (A) (A) (A) (A) (A) (A) (A) (A) (A) (A)
                 (A) (A) (A) (A) (A) (A) (A) (A) (A) (A) (A) (A)
                 (A) (A) (A) (A) (A) (A) (A) (A) (A) (A) (A) (A)
                 (A) (A) (A) (A) (A) (A) (A) (A) (A) (A) (A) (A)
                 (A) (A) (A) (A) (A) (A) (A) (A) (A) (A) (A) (A)
                 (A) (A) (A) (A) (A) (A) (A) (A) (A) (A) (A) (A)
                 (A) (A) (A) (A) (A) (A) (A) (A) (A) (A) (A) (A)
                 (A) (A) (A) (A) (A) (A) (A) (A) (A) (A) (A) (A)
                 (A) (A) (A) (A) (A) (A) (A) (A) (A) (A) (A) (A)
                 (A) (A) (A) (A) (A) (A) (A) (A) (A) (A) (A) (A)
                 (A) (A) (A) (A) (A) (A) (A) (A) (A) (A) (A) (A)
                 (A) (A) (A) (A) (A) (A) (A) (A) (A) (A) (A) (A)
                 (A) (A) (A) (A) (A) (A) (A) (A) (A) (A) (A) (A)
                 (A) (A) (A) (A) (A) (A) (A) (A) (A) (A) (A) (A)
                 (A) (A) (A) (A) (A) (A) (A) (A) (A) (A) (A) (A)
                 (A) (A) (A) (A) (A) (A) (A) (A) (A) (A) (A) (A)
                 (A) (A) (A) (A) (A) (A) (A) (A) (A) (A) (A) (A)
                 (A) (A) (A) (A) (A) (A) (A) (A) (A) (A) (A) (A)
                 (A) (A) (A) (A) (A) (A) (A) (A) (A) (A) (A) (A)
                 (A) (A) (A) (A) (A) (A) (A) (A) (A) (A) (A) (A)
                 (A) (A) (A) (A) (A) (A) (A) (A) (A) (A) (A) (A)
                 (A) (A) (A)
 Beta  Orbitals:
       Occupied  (A) (A) (A) (A) (A) (A) (A) (A) (A) (A) (A) (A)
                 (A) (A) (A) (A) (A) (A) (A) (A) (A) (A) (A) (A)
                 (A) (A) (A) (A) (A) (A) (A) (A) (A) (A) (A) (A)
                 (A) (A) (A) (A) (A) (A) (A) (A) (A) (A) (A) (A)
                 (A) (A) (A) (A) (A) (A) (A) (A) (A) (A) (A) (A)
                 (A) (A) (A) (A) (A) (A) (A) (A) (A) (A) (A) (A)
                 (A) (A) (A) (A) (A) (A) (A) (A) (A) (A) (A) (A)
                 (A) (A) (A) (A) (A) (A) (A) (A) (A) (A) (A) (A)
                 (A) (A) (A) (A) (A) (A) (A) (A) (A) (A) (A) (A)
                 (A) (A) (A) (A) (A) (A) (A) (A) (A) (A) (A) (A)
                 (A) (A) (A)
       Virtual   (A) (A) (A) (A) (A) (A) (A) (A) (A) (A) (A) (A)
                 (A) (A) (A) (A) (A) (A) (A) (A) (A) (A) (A) (A)
                 (A) (A) (A) (A) (A) (A) (A) (A) (A) (A) (A) (A)
                 (A) (A) (A) (A) (A) (A) (A) (A) (A) (A) (A) (A)
                 (A) (A) (A) (A) (A) (A) (A) (A) (A) (A) (A) (A)
                 (A) (A) (A) (A) (A) (A) (A) (A) (A) (A) (A) (A)
                 (A) (A) (A) (A) (A) (A) (A) (A) (A) (A) (A) (A)
                 (A) (A) (A) (A) (A) (A) (A) (A) (A) (A) (A) (A)
                 (A) (A) (A) (A) (A) (A) (A) (A) (A) (A) (A) (A)
                 (A) (A) (A) (A) (A) (A) (A) (A) (A) (A) (A) (A)
                 (A) (A) (A) (A) (A) (A) (A) (A) (A) (A) (A) (A)
                 (A) (A) (A) (A) (A) (A) (A) (A) (A) (A) (A) (A)
                 (A) (A) (A) (A) (A) (A) (A) (A) (A) (A) (A) (A)
                 (A) (A) (A) (A) (A) (A) (A) (A) (A) (A) (A) (A)
                 (A) (A) (A) (A) (A) (A) (A) (A) (A) (A) (A) (A)
                 (A) (A) (A) (A) (A) (A) (A) (A) (A) (A) (A) (A)
                 (A) (A) (A) (A) (A) (A) (A) (A) (A) (A) (A) (A)
                 (A) (A) (A) (A) (A) (A) (A) (A) (A) (A) (A) (A)
                 (A) (A) (A) (A) (A) (A) (A) (A) (A) (A) (A) (A)
                 (A) (A) (A) (A) (A) (A) (A) (A) (A) (A) (A) (A)
                 (A) (A) (A) (A) (A) (A) (A) (A) (A) (A) (A) (A)
                 (A) (A) (A) (A) (A) (A) (A) (A) (A) (A) (A) (A)
                 (A) (A) (A) (A) (A) (A) (A) (A) (A) (A) (A) (A)
                 (A) (A) (A) (A)
 The electronic state is 2-A.
 Alpha  occ. eigenvalues --   -3.87206  -3.84680  -3.84680  -3.84639  -3.84638
 Alpha  occ. eigenvalues --   -3.84625  -3.84624  -3.84559  -3.84558  -3.84553
 Alpha  occ. eigenvalues --   -3.84552  -3.84531  -3.84531  -2.45466  -2.45311
 Alpha  occ. eigenvalues --   -2.45294  -2.42970  -2.42957  -2.42933  -2.42923
 Alpha  occ. eigenvalues --   -2.42921  -2.42920  -2.42898  -2.42885  -2.42877
 Alpha  occ. eigenvalues --   -2.42863  -2.42845  -2.42841  -2.42822  -2.42791
 Alpha  occ. eigenvalues --   -2.42786  -2.42774  -2.42745  -2.42741  -2.42725
 Alpha  occ. eigenvalues --   -2.42715  -2.42705  -2.42697  -2.42691  -2.42668
 Alpha  occ. eigenvalues --   -2.42657  -2.42654  -2.42649  -2.42642  -2.42587
 Alpha  occ. eigenvalues --   -2.42569  -2.42551  -2.42539  -2.42536  -2.42524
 Alpha  occ. eigenvalues --   -2.42507  -2.42497  -0.48479  -0.48463  -0.48326
 Alpha  occ. eigenvalues --   -0.47791  -0.47773  -0.47758  -0.46052  -0.45570
 Alpha  occ. eigenvalues --   -0.45184  -0.45178  -0.44815  -0.44649  -0.44631
 Alpha  occ. eigenvalues --   -0.44617  -0.44595  -0.44582  -0.44338  -0.44313
 Alpha  occ. eigenvalues --   -0.44071  -0.43972  -0.43916  -0.43843  -0.43591
 Alpha  occ. eigenvalues --   -0.43573  -0.43386  -0.43286  -0.43112  -0.43082
 Alpha  occ. eigenvalues --   -0.43065  -0.42922  -0.42892  -0.42387  -0.42345
 Alpha  occ. eigenvalues --   -0.42187  -0.42118  -0.42109  -0.41709  -0.41416
 Alpha  occ. eigenvalues --   -0.41399  -0.41026  -0.40911  -0.40822  -0.40807
 Alpha  occ. eigenvalues --   -0.40305  -0.40288  -0.40254  -0.40073  -0.40063
 Alpha  occ. eigenvalues --   -0.39687  -0.39568  -0.39494  -0.39470  -0.39458
 Alpha  occ. eigenvalues --   -0.39370  -0.39364  -0.39330  -0.39315  -0.39299
 Alpha  occ. eigenvalues --   -0.39289  -0.39176  -0.39161  -0.39142  -0.39053
 Alpha  occ. eigenvalues --   -0.38932  -0.38920  -0.37441  -0.31559  -0.31543
 Alpha  occ. eigenvalues --   -0.31311  -0.20962  -0.20942  -0.20799
 Alpha virt. eigenvalues --   -0.05807  -0.05781  -0.05006  -0.02320   0.00345
 Alpha virt. eigenvalues --    0.00361   0.00472   0.01326   0.01345   0.01597
 Alpha virt. eigenvalues --    0.03597   0.03630   0.03790   0.08186   0.08208
 Alpha virt. eigenvalues --    0.08381   0.08855   0.08882   0.10692   0.11055
 Alpha virt. eigenvalues --    0.11090   0.11205   0.11600   0.11633   0.11913
 Alpha virt. eigenvalues --    0.12163   0.12174   0.14761   0.14771   0.14958
 Alpha virt. eigenvalues --    0.14993   0.15036   0.15051   0.17379   0.17561
 Alpha virt. eigenvalues --    0.17567   0.17703   0.17709   0.17719   0.18302
 Alpha virt. eigenvalues --    0.18306   0.22941   0.22948   0.22998   0.23075
 Alpha virt. eigenvalues --    0.24350   0.25990   0.26789   0.26809   0.27934
 Alpha virt. eigenvalues --    0.27979   0.28089   0.28878   0.28881   0.29057
 Alpha virt. eigenvalues --    0.30273   0.30284   0.30323   0.31703   0.33065
 Alpha virt. eigenvalues --    0.33101   0.33413   0.34065   0.34462   0.34498
 Alpha virt. eigenvalues --    0.35244   0.35274   0.35324   0.36345   0.36391
 Alpha virt. eigenvalues --    0.40198   0.40228   0.40423   0.40845   0.41092
 Alpha virt. eigenvalues --    0.41122   0.43704   0.43727   0.43867   0.43880
 Alpha virt. eigenvalues --    0.45188   0.45948   0.49329   0.49370   0.49585
 Alpha virt. eigenvalues --    0.51568   0.53611   0.53698   0.53713   0.55000
 Alpha virt. eigenvalues --    0.55084   0.56122   0.56171   0.56953   0.59076
 Alpha virt. eigenvalues --    0.59828   0.59879   0.62208   0.62228   0.62784
 Alpha virt. eigenvalues --    0.64661   0.64682   0.65371   0.65539   0.65585
 Alpha virt. eigenvalues --    0.65863   0.66691   0.70106   0.70764   0.70793
 Alpha virt. eigenvalues --    0.71842   0.71944   0.73078   0.73131   0.73792
 Alpha virt. eigenvalues --    0.73921   0.74034   0.74107   0.75496   0.75608
 Alpha virt. eigenvalues --    0.76453   0.76502   0.76551   0.77595   0.77955
 Alpha virt. eigenvalues --    0.78022   0.79970   0.80147   0.81503   0.83445
 Alpha virt. eigenvalues --    0.83464   0.85818   0.87103   0.87121   0.87636
 Alpha virt. eigenvalues --    0.88652   0.88753   0.89417   0.89468   0.90132
 Alpha virt. eigenvalues --    0.91692   0.91796   0.93836   0.95770   0.95881
 Alpha virt. eigenvalues --    0.97946   0.98598   0.98664   0.98731   1.02004
 Alpha virt. eigenvalues --    1.02108   1.02450   1.02549   1.02957   1.04153
 Alpha virt. eigenvalues --    1.04671   1.04724   1.04887   1.05195   1.10736
 Alpha virt. eigenvalues --    1.11353   1.11652   2.15497   2.27719   2.28113
 Alpha virt. eigenvalues --    2.28171   2.33099   2.33953   2.34035   2.44818
 Alpha virt. eigenvalues --    2.44825   2.44840   2.44920   2.45686   2.53231
 Alpha virt. eigenvalues --    2.65508   2.65696   2.65699   2.65735   2.66871
 Alpha virt. eigenvalues --    2.66888   2.66900   2.67406   2.67423   2.67446
 Alpha virt. eigenvalues --    2.67458   2.67518   2.67528   2.67556   2.67565
 Alpha virt. eigenvalues --    2.67576   2.67580   2.67581   2.67582   2.67644
 Alpha virt. eigenvalues --    2.67679   2.67682   2.67689   2.67720   2.67779
 Alpha virt. eigenvalues --    2.67787   2.67799   2.67805   2.67880   2.67889
 Alpha virt. eigenvalues --    2.67889   2.67903   2.67926   2.67929   2.67937
 Alpha virt. eigenvalues --    2.68005   2.68015   2.68049   2.68109   2.68123
 Alpha virt. eigenvalues --    2.68126   2.68132   2.68177   2.68206   2.68212
 Alpha virt. eigenvalues --    2.68250   2.68253   2.68261   2.68276   2.68281
 Alpha virt. eigenvalues --    2.68325   2.68348   2.68478   2.68484   2.68557
 Alpha virt. eigenvalues --    2.68630   2.68671   2.68740   2.68767   2.68892
 Alpha virt. eigenvalues --    2.68992   2.69002   2.69081   2.69092   2.69309
 Alpha virt. eigenvalues --    2.69339   2.69393   2.69412   2.69516   2.69546
 Alpha virt. eigenvalues --    2.69871   2.69885   2.69992   2.70084   2.70087
 Alpha virt. eigenvalues --    2.70283   2.70306   2.70318   2.70830   2.70844
 Alpha virt. eigenvalues --    2.70955   2.71209   2.72050   2.72091   2.72187
 Alpha virt. eigenvalues --    2.72317   2.72327   2.73627   2.73660   2.74281
 Alpha virt. eigenvalues --    2.85166  54.32675  54.40873  54.40914  54.40951
 Alpha virt. eigenvalues --   54.45762  54.45874  54.45931  54.52478  54.52512
 Alpha virt. eigenvalues --   54.54836  54.54865  54.56084  54.69732
  Beta  occ. eigenvalues --   -3.87044  -3.84633  -3.84633  -3.84595  -3.84594
  Beta  occ. eigenvalues --   -3.84581  -3.84580  -3.84535  -3.84533  -3.84529
  Beta  occ. eigenvalues --   -3.84528  -3.84509  -3.84508  -2.45198  -2.45175
  Beta  occ. eigenvalues --   -2.45167  -2.42943  -2.42930  -2.42905  -2.42894
  Beta  occ. eigenvalues --   -2.42881  -2.42881  -2.42873  -2.42855  -2.42840
  Beta  occ. eigenvalues --   -2.42831  -2.42820  -2.42818  -2.42797  -2.42759
  Beta  occ. eigenvalues --   -2.42750  -2.42748  -2.42730  -2.42725  -2.42700
  Beta  occ. eigenvalues --   -2.42686  -2.42683  -2.42680  -2.42672  -2.42643
  Beta  occ. eigenvalues --   -2.42640  -2.42634  -2.42626  -2.42602  -2.42555
  Beta  occ. eigenvalues --   -2.42537  -2.42513  -2.42500  -2.42498  -2.42486
  Beta  occ. eigenvalues --   -2.42471  -2.42460  -0.48428  -0.48412  -0.48129
  Beta  occ. eigenvalues --   -0.47736  -0.47711  -0.47636  -0.45990  -0.45462
  Beta  occ. eigenvalues --   -0.45148  -0.45142  -0.44757  -0.44564  -0.44547
  Beta  occ. eigenvalues --   -0.44544  -0.44529  -0.44528  -0.44262  -0.44237
  Beta  occ. eigenvalues --   -0.43975  -0.43936  -0.43879  -0.43793  -0.43536
  Beta  occ. eigenvalues --   -0.43523  -0.43351  -0.43127  -0.43038  -0.43020
  Beta  occ. eigenvalues --   -0.42942  -0.42880  -0.42848  -0.42343  -0.42301
  Beta  occ. eigenvalues --   -0.42068  -0.42058  -0.41910  -0.41645  -0.41378
  Beta  occ. eigenvalues --   -0.41363  -0.40983  -0.40833  -0.40781  -0.40766
  Beta  occ. eigenvalues --   -0.40268  -0.40252  -0.40235  -0.40015  -0.40007
  Beta  occ. eigenvalues --   -0.39730  -0.39525  -0.39447  -0.39425  -0.39410
  Beta  occ. eigenvalues --   -0.39334  -0.39327  -0.39245  -0.39231  -0.39228
  Beta  occ. eigenvalues --   -0.39220  -0.39121  -0.39103  -0.39019  -0.38865
  Beta  occ. eigenvalues --   -0.38844  -0.38831  -0.37393  -0.31162  -0.31088
  Beta  occ. eigenvalues --   -0.29731  -0.20908  -0.20905
  Beta virt. eigenvalues --   -0.07769  -0.05628  -0.05618  -0.04746  -0.01260
  Beta virt. eigenvalues --    0.00663   0.00702   0.00843   0.01697   0.01756
  Beta virt. eigenvalues --    0.02006   0.03556   0.03597   0.04149   0.08255
  Beta virt. eigenvalues --    0.08276   0.08842   0.08906   0.08939   0.10663
  Beta virt. eigenvalues --    0.11040   0.11079   0.11301   0.11586   0.11603
  Beta virt. eigenvalues --    0.11909   0.12179   0.12185   0.14856   0.14870
  Beta virt. eigenvalues --    0.15029   0.15266   0.15295   0.15311   0.17412
  Beta virt. eigenvalues --    0.17417   0.17553   0.17565   0.17629   0.17640
  Beta virt. eigenvalues --    0.18133   0.18136   0.22910   0.22915   0.22918
  Beta virt. eigenvalues --    0.23017   0.24336   0.25966   0.26754   0.26773
  Beta virt. eigenvalues --    0.27916   0.27959   0.28042   0.28947   0.28950
  Beta virt. eigenvalues --    0.29211   0.30346   0.30360   0.30460   0.31793
  Beta virt. eigenvalues --    0.33060   0.33090   0.33338   0.34053   0.34571
  Beta virt. eigenvalues --    0.34612   0.35114   0.35141   0.35389   0.36393
  Beta virt. eigenvalues --    0.36437   0.40307   0.40341   0.40620   0.40882
  Beta virt. eigenvalues --    0.41211   0.41242   0.43825   0.43845   0.43861
  Beta virt. eigenvalues --    0.43881   0.44923   0.46131   0.49350   0.49396
  Beta virt. eigenvalues --    0.49716   0.51667   0.53680   0.53803   0.53818
  Beta virt. eigenvalues --    0.55029   0.55112   0.56069   0.56120   0.56982
  Beta virt. eigenvalues --    0.59159   0.59858   0.59910   0.62242   0.62259
  Beta virt. eigenvalues --    0.62945   0.64684   0.64709   0.65463   0.65587
  Beta virt. eigenvalues --    0.65639   0.65954   0.66771   0.70205   0.70805
  Beta virt. eigenvalues --    0.70835   0.71894   0.71999   0.73167   0.73225
  Beta virt. eigenvalues --    0.73771   0.73949   0.74116   0.74190   0.75505
  Beta virt. eigenvalues --    0.75618   0.76458   0.76490   0.76538   0.77710
  Beta virt. eigenvalues --    0.78008   0.78075   0.80040   0.80223   0.81613
  Beta virt. eigenvalues --    0.83483   0.83502   0.85833   0.87110   0.87129
  Beta virt. eigenvalues --    0.87637   0.88665   0.88766   0.89489   0.89542
  Beta virt. eigenvalues --    0.90152   0.91730   0.91838   0.93925   0.95804
  Beta virt. eigenvalues --    0.95911   0.97962   0.98589   0.98653   0.98717
  Beta virt. eigenvalues --    1.02014   1.02116   1.02492   1.02589   1.02987
  Beta virt. eigenvalues --    1.04205   1.04700   1.04719   1.04914   1.05223
  Beta virt. eigenvalues --    1.10797   1.11376   1.11680   2.15571   2.27779
  Beta virt. eigenvalues --    2.28181   2.28242   2.33155   2.33996   2.34082
  Beta virt. eigenvalues --    2.44858   2.44871   2.44881   2.44989   2.45750
  Beta virt. eigenvalues --    2.53279   2.65768   2.65768   2.65787   2.65853
  Beta virt. eigenvalues --    2.66946   2.66981   2.66993   2.67439   2.67452
  Beta virt. eigenvalues --    2.67472   2.67484   2.67541   2.67551   2.67581
  Beta virt. eigenvalues --    2.67583   2.67600   2.67601   2.67604   2.67612
  Beta virt. eigenvalues --    2.67659   2.67692   2.67695   2.67702   2.67742
  Beta virt. eigenvalues --    2.67796   2.67803   2.67831   2.67838   2.67897
  Beta virt. eigenvalues --    2.67905   2.67913   2.67933   2.67954   2.67964
  Beta virt. eigenvalues --    2.67975   2.68011   2.68021   2.68076   2.68132
  Beta virt. eigenvalues --    2.68147   2.68153   2.68161   2.68187   2.68231
  Beta virt. eigenvalues --    2.68237   2.68271   2.68276   2.68288   2.68299
  Beta virt. eigenvalues --    2.68304   2.68352   2.68364   2.68536   2.68543
  Beta virt. eigenvalues --    2.68570   2.68661   2.68696   2.68762   2.68790
  Beta virt. eigenvalues --    2.68905   2.69000   2.69011   2.69109   2.69120
  Beta virt. eigenvalues --    2.69330   2.69366   2.69413   2.69433   2.69537
  Beta virt. eigenvalues --    2.69567   2.69897   2.69911   2.70015   2.70110
  Beta virt. eigenvalues --    2.70113   2.70319   2.70334   2.70346   2.70857
  Beta virt. eigenvalues --    2.70871   2.70983   2.71228   2.72075   2.72117
  Beta virt. eigenvalues --    2.72215   2.72342   2.72354   2.73674   2.73708
  Beta virt. eigenvalues --    2.74321   2.85214  54.32663  54.40857  54.40896
  Beta virt. eigenvalues --   54.40951  54.45751  54.45865  54.45921  54.52465
  Beta virt. eigenvalues --   54.52497  54.54831  54.54860  54.56059  54.69688
          Condensed to atoms (all electrons):
               1          2          3          4          5          6
     1  Ag  18.541899   0.007937  -0.030201   0.081587   0.069127   0.081481
     2  Ag   0.007937  18.541832   0.081382  -0.030161   0.068985  -0.029909
     3  Ag  -0.030201   0.081382  18.542847   0.006780   0.065644   0.080338
     4  Ag   0.081587  -0.030161   0.006780  18.543205   0.065937  -0.030631
     5  Ag   0.069127   0.068985   0.065644   0.065937  21.306557   0.069280
     6  Ag   0.081481  -0.029909   0.080338  -0.030631   0.069280  18.541639
     7  Ag  -0.031526   0.094216  -0.059641  -0.060732   0.085791  -0.031126
     8  Ag   0.094308  -0.031507  -0.060615  -0.059572   0.085938   0.094526
     9  Ag  -0.032197   0.092159   0.092569  -0.032388   0.086595  -0.060203
    10  Ag  -0.029875   0.081628  -0.030617   0.080316   0.069523   0.008145
    11  Ag   0.091950  -0.032187  -0.032339   0.092413   0.086133  -0.060276
    12  Ag  -0.059308  -0.060920   0.092486  -0.032265   0.089046   0.093472
    13  Ag  -0.060849  -0.059268  -0.032259   0.092385   0.088497  -0.031617
               7          8          9         10         11         12
     1  Ag  -0.031526   0.094308  -0.032197  -0.029875   0.091950  -0.059308
     2  Ag   0.094216  -0.031507   0.092159   0.081628  -0.032187  -0.060920
     3  Ag  -0.059641  -0.060615   0.092569  -0.030617  -0.032339   0.092486
     4  Ag  -0.060732  -0.059572  -0.032388   0.080316   0.092413  -0.032265
     5  Ag   0.085791   0.085938   0.086595   0.069523   0.086133   0.089046
     6  Ag  -0.031126   0.094526  -0.060203   0.008145  -0.060276   0.093472
     7  Ag  18.619974   0.014077  -0.045764   0.094569   0.051344   0.050120
     8  Ag   0.014077  18.619598   0.051305  -0.031181  -0.045769  -0.045556
     9  Ag  -0.045764   0.051305  18.624787  -0.060269   0.014856  -0.045158
    10  Ag   0.094569  -0.031181  -0.060269  18.541976  -0.060283  -0.031577
    11  Ag   0.051344  -0.045769   0.014856  -0.060283  18.624667   0.052065
    12  Ag   0.050120  -0.045556  -0.045158  -0.031577   0.052065  18.624688
    13  Ag  -0.045509   0.050068   0.051938   0.093301  -0.045115   0.015392
              13
     1  Ag  -0.060849
     2  Ag  -0.059268
     3  Ag  -0.032259
     4  Ag   0.092385
     5  Ag   0.088497
     6  Ag  -0.031617
     7  Ag  -0.045509
     8  Ag   0.050068
     9  Ag   0.051938
    10  Ag   0.093301
    11  Ag  -0.045115
    12  Ag   0.015392
    13  Ag  18.623853
          Atomic-Atomic Spin Densities.
               1          2          3          4          5          6
     1  Ag   0.134878   0.015518   0.013129   0.039002  -0.007960   0.034983
     2  Ag   0.015518   0.134904   0.038931   0.013137  -0.007998   0.011778
     3  Ag   0.013129   0.038931   0.143368   0.016820  -0.008027   0.038861
     4  Ag   0.039002   0.013137   0.016820   0.143475  -0.007980   0.013139
     5  Ag  -0.007960  -0.007998  -0.008027  -0.007980  -0.179186  -0.007911
     6  Ag   0.034983   0.011778   0.038861   0.013139  -0.007911   0.134791
     7  Ag  -0.014257  -0.035527  -0.028134  -0.028233   0.013467  -0.014184
     8  Ag  -0.035474  -0.014196  -0.028145  -0.028108   0.013638  -0.035144
     9  Ag  -0.013337  -0.032336  -0.034694  -0.014429   0.012004  -0.025529
    10  Ag   0.011788   0.035042   0.013137   0.038911  -0.007915   0.015431
    11  Ag  -0.032377  -0.013388  -0.014445  -0.034789   0.011815  -0.025868
    12  Ag  -0.025643  -0.025421  -0.033505  -0.014088   0.011015  -0.032122
    13  Ag  -0.025336  -0.025551  -0.014035  -0.033483   0.011176  -0.013092
               7          8          9         10         11         12
     1  Ag  -0.014257  -0.035474  -0.013337   0.011788  -0.032377  -0.025643
     2  Ag  -0.035527  -0.014196  -0.032336   0.035042  -0.013388  -0.025421
     3  Ag  -0.028134  -0.028145  -0.034694   0.013137  -0.014445  -0.033505
     4  Ag  -0.028233  -0.028108  -0.014429   0.038911  -0.034789  -0.014088
     5  Ag   0.013467   0.013638   0.012004  -0.007915   0.011815   0.011015
     6  Ag  -0.014184  -0.035144  -0.025529   0.015431  -0.025868  -0.032122
     7  Ag   0.057411   0.003748   0.015999  -0.035267   0.073781   0.072873
     8  Ag   0.003748   0.057201   0.073523  -0.014166   0.015986   0.015739
     9  Ag   0.015999   0.073523   0.048432  -0.025880   0.002857   0.015373
    10  Ag  -0.035267  -0.014166  -0.025880   0.134918  -0.025571  -0.013137
    11  Ag   0.073781   0.015986   0.002857  -0.025571   0.048611   0.072479
    12  Ag   0.072873   0.015739   0.015373  -0.013137   0.072479   0.045800
    13  Ag   0.015729   0.072686   0.072312  -0.032092   0.015350   0.002459
              13
     1  Ag  -0.025336
     2  Ag  -0.025551
     3  Ag  -0.014035
     4  Ag  -0.033483
     5  Ag   0.011176
     6  Ag  -0.013092
     7  Ag   0.015729
     8  Ag   0.072686
     9  Ag   0.072312
    10  Ag  -0.032092
    11  Ag   0.015350
    12  Ag   0.002459
    13  Ag   0.045717
 Mulliken charges and spin densities:
               1          2
     1  Ag   0.275668   0.094915
     2  Ag   0.275812   0.094893
     3  Ag   0.283628   0.103261
     4  Ag   0.283125   0.103372
     5  Ag  -3.237054  -0.153864
     6  Ag   0.274880   0.095133
     7  Ag   0.264207   0.097406
     8  Ag   0.264380   0.097289
     9  Ag   0.261770   0.094295
    10  Ag   0.274345   0.095198
    11  Ag   0.262541   0.094440
    12  Ag   0.257516   0.091821
    13  Ag   0.259184   0.091841
 Sum of Mulliken charges =  -0.00000   1.00000
 Mulliken charges and spin densities with hydrogens summed into heavy atoms:
               1          2
     1  Ag   0.275668   0.094915
     2  Ag   0.275812   0.094893
     3  Ag   0.283628   0.103261
     4  Ag   0.283125   0.103372
     5  Ag  -3.237054  -0.153864
     6  Ag   0.274880   0.095133
     7  Ag   0.264207   0.097406
     8  Ag   0.264380   0.097289
     9  Ag   0.261770   0.094295
    10  Ag   0.274345   0.095198
    11  Ag   0.262541   0.094440
    12  Ag   0.257516   0.091821
    13  Ag   0.259184   0.091841
 Electronic spatial extent (au):  <R**2>=           7412.5714
 Charge=             -0.0000 electrons
 Dipole moment (field-independent basis, Debye):
    X=              0.0001    Y=             -0.0012    Z=             -0.0013  Tot=              0.0018
 Quadrupole moment (field-independent basis, Debye-Ang):
   XX=           -256.2312   YY=           -255.9063   ZZ=           -249.0942
   XY=              0.0033   XZ=              0.2606   YZ=             -0.0127
 Traceless Quadrupole moment (field-independent basis, Debye-Ang):
   XX=             -2.4873   YY=             -2.1624   ZZ=              4.6497
   XY=              0.0033   XZ=              0.2606   YZ=             -0.0127
 Octapole moment (field-independent basis, Debye-Ang**2):
  XXX=              0.0148  YYY=              0.0022  ZZZ=             -0.0254  XYY=             -0.0047
  XXY=             -0.0025  XXZ=             -0.0073  XZZ=             -0.0056  YZZ=             -0.0234
  YYZ=             -0.0017  XYZ=             -0.0128
 Hexadecapole moment (field-independent basis, Debye-Ang**3):
 XXXX=          -4416.5520 YYYY=          -4382.7226 ZZZZ=          -4023.0904 XXXY=             -0.8913
 XXXZ=             44.2686 YYYX=             -0.0978 YYYZ=             14.1198 ZZZX=              2.5268
 ZZZY=              0.3388 XXYY=          -1469.0822 XXZZ=          -1426.1196 YYZZ=          -1416.5540
 XXYZ=            -14.8209 YYXZ=            -41.4655 ZZXY=              0.8956
 N-N= 4.042470767332D+03 E-N=-1.220607332722D+04  KE= 7.288921353796D+02
                          Isotropic Fermi Contact Couplings
        Atom                 a.u.       MegaHertz       Gauss      10(-4) cm-1
     1  Ag(107             0.00003      -0.00609      -0.00217      -0.00203
     2  Ag(107             0.00003      -0.00608      -0.00217      -0.00203
     3  Ag(107             0.00004      -0.00659      -0.00235      -0.00220
     4  Ag(107             0.00004      -0.00660      -0.00235      -0.00220
     5  Ag(107            -0.00000       0.00070       0.00025       0.00023
     6  Ag(107             0.00003      -0.00609      -0.00217      -0.00203
     7  Ag(107             0.00001      -0.00220      -0.00078      -0.00073
     8  Ag(107             0.00001      -0.00219      -0.00078      -0.00073
     9  Ag(107             0.00001      -0.00167      -0.00060      -0.00056
    10  Ag(107             0.00003      -0.00610      -0.00218      -0.00203
    11  Ag(107             0.00001      -0.00167      -0.00060      -0.00056
    12  Ag(107             0.00001      -0.00153      -0.00055      -0.00051
    13  Ag(107             0.00001      -0.00153      -0.00055      -0.00051
 --------------------------------------------------------
       Center         ----  Spin Dipole Couplings  ----
                      3XX-RR        3YY-RR        3ZZ-RR
 --------------------------------------------------------
     1   Atom        0.001576      0.007571     -0.009147
     2   Atom        0.001575      0.007572     -0.009146
     3   Atom        0.015958     -0.006517     -0.009441
     4   Atom        0.015968     -0.006520     -0.009449
[...]
      4       47           0.000128305   -0.000093383    0.000045389
      5       47          -0.000007536   -0.000001824   -0.000026987
      6       47           0.000062757   -0.000066821   -0.000007422
      7       47          -0.000028744    0.000075967   -0.000039111
      8       47           0.000036452   -0.000064340    0.000037610
      9       47           0.000039041    0.000032446   -0.000082397
     10       47          -0.000069011    0.000054916    0.000020174
     11       47          -0.000037201   -0.000012790    0.000089249
     12       47           0.000059853    0.000067131   -0.000026425
     13       47          -0.000067520   -0.000067987    0.000014105
 -------------------------------------------------------------------
 Cartesian Forces:  Max     0.000128305 RMS     0.000059057
 Z-matrix is all fixed cartesians, so copy forces.
 Force constants in Cartesian coordinates: 
                1             2             3             4             5 
      1  0.251537D+00
      2  0.395699D-02  0.253931D+00
      3 -0.368563D-01  0.367630D-02  0.251347D+00
      4  0.554603D-02  0.147946D-02  0.557689D-02  0.251452D+00
      5  0.147263D-02  0.961278D-02  0.149374D-02  0.394073D-02  0.253924D+00
      6  0.556729D-02  0.149665D-02  0.559827D-02 -0.368430D-01  0.365652D-02
      7  0.799568D-02 -0.536195D-02  0.372959D-02 -0.541389D-01  0.301398D-01
      8 -0.509914D-02  0.795877D-02  0.349254D-02  0.429177D-02 -0.540878D-01
      9  0.357582D-02  0.373031D-02 -0.855644D-03  0.230792D-01 -0.115579D-01
     10 -0.541431D-01  0.301327D-01 -0.115191D-01  0.800084D-02 -0.536123D-02
     11  0.427085D-02 -0.540537D-01  0.229364D-01 -0.509789D-02  0.795914D-02
     12  0.230592D-01 -0.115302D-01 -0.295468D-01  0.357997D-02  0.373776D-02
     13 -0.901999D-01 -0.261296D-02 -0.663638D-02 -0.901597D-01 -0.260732D-02
     14 -0.264532D-02 -0.882553D-01 -0.257700D-02 -0.265529D-02 -0.882125D-01
     15 -0.654357D-02 -0.256256D-02 -0.904188D-01 -0.655928D-02 -0.256390D-02
     16 -0.296137D-01 -0.114434D-01  0.230608D-01 -0.881844D-03  0.367125D-02
     17  0.231360D-01 -0.539215D-01  0.452590D-02  0.353015D-02  0.803951D-02
     18 -0.116672D-01  0.300681D-01 -0.540897D-01  0.371799D-02 -0.533438D-02
     19  0.772085D-02  0.534922D-02  0.367065D-02 -0.578734D-01 -0.332368D-01
     20  0.510351D-02  0.796723D-02 -0.343853D-02 -0.668786D-02 -0.590375D-01
     21  0.354370D-02 -0.367111D-02 -0.683862D-03  0.230639D-01  0.120724D-01
     22 -0.578962D-01 -0.332419D-01 -0.109400D-01  0.772634D-02  0.534847D-02
     23 -0.667983D-02 -0.590165D-01 -0.236995D-01  0.510215D-02  0.796994D-02
     24  0.230419D-01  0.120328D-01 -0.314530D-01  0.354489D-02 -0.367504D-02
     25 -0.733117D-03 -0.365739D-02  0.339442D-02 -0.314488D-01  0.119307D-01
     26 -0.356217D-02  0.798377D-02  0.508109D-02 -0.236495D-01 -0.583777D-01
     27  0.366030D-02  0.532447D-02  0.777015D-02 -0.111633D-01 -0.330758D-01
     28 -0.883814D-03  0.367433D-02  0.347207D-02 -0.296183D-01 -0.114024D-01
     29  0.352453D-02  0.804566D-02 -0.507443D-02  0.231447D-01 -0.539141D-01
     30  0.371326D-02 -0.533390D-02  0.802278D-02 -0.117052D-01  0.300817D-01
     31 -0.314620D-01  0.119673D-01  0.231039D-01 -0.731543D-03 -0.365244D-02
     32 -0.236463D-01 -0.583936D-01 -0.665221D-02 -0.356720D-02  0.797980D-02
     33 -0.111309D-01 -0.330718D-01 -0.578176D-01  0.366563D-02  0.532453D-02
     34  0.532064D-02 -0.166252D-03  0.475015D-02 -0.131972D-01 -0.762515D-04
     35 -0.851885D-05  0.908123D-02  0.227145D-03  0.178396D-03  0.905475D-02
     36 -0.466891D-02 -0.209697D-04 -0.132018D-01  0.471475D-02 -0.138806D-03
     37 -0.131882D-01 -0.761478D-04 -0.480663D-02  0.532425D-02 -0.167130D-03
     38  0.176734D-03  0.906013D-02  0.858704D-05 -0.959829D-05  0.909006D-02
     39  0.470542D-02 -0.137999D-03  0.532907D-02 -0.467243D-02 -0.207602D-04
                6             7             8             9            10 
      6  0.251423D+00
      7 -0.114932D-01  0.253368D+00
      8  0.229433D-01  0.240534D-02  0.250782D+00
      9 -0.295734D-01  0.255037D-02 -0.384001D-01  0.250321D+00
     10  0.372085D-02  0.827863D-02  0.287532D-04  0.373380D-04  0.253394D+00
     11  0.348616D-02  0.279346D-04  0.408480D-02  0.409285D-02  0.244600D-02
     12 -0.857658D-03  0.381256D-04  0.409452D-02  0.410259D-02  0.260563D-02
     13 -0.664969D-02 -0.861947D-01  0.336488D-03  0.334076D-03 -0.862634D-01
     14 -0.258047D-02  0.350314D-03 -0.881451D-01 -0.327266D-02  0.355341D-03
     15 -0.903775D-01  0.372810D-03 -0.336012D-02 -0.880809D-01  0.383648D-03
     16  0.347002D-02 -0.540979D-01  0.229880D-01  0.419629D-02  0.798709D-02
     17 -0.507590D-02 -0.117445D-01 -0.294721D-01  0.229541D-01  0.376928D-02
     18  0.801898D-02  0.299875D-01 -0.112887D-01 -0.536294D-01 -0.536265D-02
     19 -0.109004D-01  0.904279D-02  0.274145D-03  0.230497D-04  0.899583D-02
     20 -0.236897D-01  0.358021D-04 -0.132301D-01 -0.471126D-02 -0.171369D-03
     21 -0.314668D-01 -0.164989D-03  0.471038D-02  0.536373D-02  0.749696D-04
     22  0.366356D-02  0.899794D-02  0.273248D-04  0.290872D-03  0.903759D-02
     23 -0.343337D-02 -0.175291D-03  0.533293D-02  0.473961D-02  0.384178D-04
     24 -0.684704D-03  0.743482D-04 -0.477775D-02 -0.133060D-01 -0.163284D-03
     25  0.230865D-01 -0.586809D-01 -0.236774D-01 -0.674575D-02  0.793104D-02
     26 -0.664758D-02  0.119293D-01 -0.315078D-01  0.230662D-01 -0.369835D-02
     27 -0.578460D-01 -0.331150D-01 -0.111350D-01 -0.579374D-01  0.533170D-02
     28  0.230469D-01  0.797825D-02  0.352449D-02 -0.510233D-02 -0.540690D-01
     29  0.452724D-02  0.377218D-02 -0.855791D-03  0.354200D-02 -0.117553D-01
     30 -0.541334D-01 -0.536240D-02  0.368067D-02  0.798915D-02  0.299585D-01
     31  0.339141D-02  0.793023D-02 -0.350855D-02  0.508542D-02 -0.586695D-01
     32  0.508207D-02 -0.369223D-02 -0.748586D-03  0.347428D-02  0.119092D-01
     33  0.776427D-02  0.532957D-02  0.365276D-02  0.779788D-02 -0.331164D-01
     34 -0.479945D-02 -0.584502D-01 -0.667860D-02 -0.238164D-01  0.796746D-02
     35  0.791107D-05 -0.330169D-01 -0.578877D-01 -0.113436D-01  0.533014D-02
     36  0.532426D-02  0.116983D-01  0.229243D-01 -0.314540D-01 -0.364675D-02
     37  0.473926D-02  0.797095D-02  0.508741D-02 -0.350798D-02 -0.584474D-01
     38  0.227182D-03  0.533014D-02  0.777659D-02  0.368617D-02 -0.330236D-01
     39 -0.131891D-01 -0.364510D-02  0.346310D-02 -0.737877D-03  0.116956D-01
               11            12            13            14            15 
     11  0.250792D+00
     12 -0.384070D-01  0.250371D+00
     13  0.343322D-03  0.334830D-03  0.104804D+01
     14 -0.882281D-01 -0.326963D-02  0.661343D-02  0.107281D+01
     15 -0.332541D-02 -0.881577D-01  0.139269D-02  0.124266D-01  0.106253D+01
     16  0.352729D-02 -0.510206D-02 -0.880778D-01 -0.474718D-02 -0.705887D-03
     17 -0.855719D-03  0.353770D-02 -0.466293D-02 -0.881557D-01 -0.634430D-03
     18  0.368308D-02  0.798477D-02 -0.656706D-03 -0.630357D-03 -0.861040D-01
     19  0.306178D-04  0.287497D-03 -0.849148D-01 -0.166508D-02  0.995145D-03
     20  0.533146D-02  0.473826D-02 -0.303388D-02 -0.909807D-01  0.763524D-02
     21 -0.478093D-02 -0.133112D-01 -0.355658D-03  0.755612D-02 -0.908505D-01
     22  0.273897D-03  0.257482D-04 -0.849747D-01 -0.167335D-02  0.100853D-02
     23 -0.132367D-01 -0.471897D-02 -0.304367D-02 -0.910547D-01  0.761352D-02
     24  0.471121D-02  0.536550D-02 -0.358155D-03  0.755912D-02 -0.909175D-01
     25 -0.350754D-02  0.508694D-02 -0.884279D-01  0.537237D-02  0.155753D-02
     26 -0.747375D-03  0.347883D-02  0.527902D-02 -0.887066D-01 -0.502144D-02
     27  0.365168D-02  0.779852D-02  0.292779D-02 -0.366534D-02 -0.893029D-01
     28  0.229693D-01  0.416931D-02 -0.881092D-01 -0.475575D-02 -0.711475D-03
     29 -0.294312D-01  0.229461D-01 -0.463435D-02 -0.881941D-01 -0.623566D-03
     30 -0.112735D-01 -0.535891D-01 -0.646200D-03 -0.629460D-03 -0.861349D-01
     31 -0.236889D-01 -0.675193D-02 -0.883476D-01  0.538132D-02  0.156634D-02
     32 -0.315160D-01  0.230619D-01  0.529675D-02 -0.886196D-01 -0.500469D-02
     33 -0.111583D-01 -0.579531D-01  0.291117D-02 -0.366118D-02 -0.892271D-01
     34  0.508712D-02 -0.350575D-02 -0.861905D-01  0.362900D-04  0.362701D-02
     35  0.777756D-02  0.368781D-02  0.136168D-02 -0.921273D-01 -0.229225D-02
     36  0.346811D-02 -0.740706D-03  0.369749D-02 -0.362596D-02 -0.864834D-01
     37 -0.668203D-02 -0.238275D-01 -0.861835D-01  0.328960D-04  0.361651D-02
     38 -0.578763D-01 -0.113571D-01  0.136441D-02 -0.921341D-01 -0.228700D-02
     39  0.229156D-01 -0.314657D-01  0.370474D-02 -0.362980D-02 -0.864750D-01
               16            17            18            19            20 
     16  0.250625D+00
     17 -0.377842D-01  0.249689D+00
     18  0.319642D-02  0.278457D-02  0.252583D+00
     19  0.767749D-02  0.372486D-02  0.533173D-02  0.233455D+00
     20  0.349223D-02 -0.697594D-03 -0.360377D-02  0.731348D-02  0.241645D+00
     21  0.508620D-02 -0.347355D-02  0.799183D-02  0.577348D-02  0.340351D-01
     22 -0.581172D-01 -0.112018D-01 -0.332730D-01  0.838047D-02  0.885447D-03
     23  0.229895D-01 -0.315144D-01  0.117432D-01  0.886339D-03  0.605357D-02
     24 -0.673411D-02 -0.238314D-01 -0.588692D-01 -0.462164D-03 -0.603352D-02
     25 -0.131473D-01 -0.474600D-02 -0.923136D-04  0.813262D-02 -0.350610D-02
     26  0.468316D-02  0.535914D-02 -0.126856D-03 -0.366894D-02 -0.118119D-02
     27  0.135658D-03  0.468146D-05  0.911558D-02 -0.525806D-02 -0.363550D-02
     28  0.454180D-02  0.458385D-02  0.491991D-03 -0.581552D-01  0.229800D-01
     29  0.458597D-02  0.462846D-02  0.511834D-03 -0.112378D-01 -0.315125D-01
     30  0.489418D-03  0.514272D-03  0.861960D-02 -0.332747D-01  0.117025D-01
     31  0.530005D-02  0.478614D-02 -0.152663D-03 -0.456180D-01 -0.212993D-01
     32 -0.469790D-02 -0.132605D-01 -0.401263D-04  0.120295D-01 -0.274091D-01
     33  0.172490D-05  0.218862D-03  0.903624D-02  0.256968D-01  0.116534D-01
     34 -0.314817D-01  0.231757D-01  0.121833D-01 -0.450020D-01 -0.158534D-04
     35 -0.108585D-01 -0.576283D-01 -0.330867D-01  0.254541D-01 -0.449999D-01
     36 -0.235837D-01 -0.660355D-02 -0.585949D-01  0.117171D-01 -0.210791D-01
     37 -0.713702D-03  0.343343D-02 -0.370438D-02  0.815817D-02 -0.509605D-02
     38  0.359379D-02  0.778943D-02  0.532007D-02 -0.525362D-02  0.805138D-02
     39 -0.351081D-02  0.507868D-02  0.793706D-02 -0.360004D-02 -0.357312D-02
               21            22            23            24            25 
     21  0.241260D+00
     22 -0.464687D-03  0.233421D+00
     23 -0.603567D-02  0.728791D-02  0.241613D+00
     24  0.603702D-02  0.582347D-02  0.340452D-01  0.241299D+00
     25 -0.509712D-02 -0.455613D-01 -0.212810D-01  0.118548D-03  0.240393D+00
     26 -0.363579D-02  0.120288D-01 -0.273558D-01 -0.211400D-01  0.350164D-01
     27  0.809620D-02  0.256617D-01  0.116508D-01 -0.451870D-01  0.498285D-02
     28 -0.673379D-02  0.767632D-02  0.349184D-02  0.508852D-02  0.529851D-02
     29 -0.238373D-01  0.372831D-02 -0.693737D-03 -0.347726D-02  0.479193D-02
     30 -0.588453D-01  0.533438D-02 -0.360488D-02  0.799072D-02 -0.152040D-03
     31  0.152317D-03  0.814154D-02 -0.350851D-02 -0.509758D-02  0.481473D-02
     32 -0.211543D-01 -0.366339D-02 -0.117970D-02 -0.363237D-02 -0.487333D-02
     33 -0.452394D-01 -0.525852D-02 -0.364005D-02  0.808963D-02 -0.142748D-02
     34 -0.213108D-01  0.815546D-02 -0.509522D-02 -0.355962D-02 -0.111105D-02
     35  0.119125D-01 -0.525303D-02  0.805475D-02 -0.369547D-02 -0.362262D-02
     36 -0.271728D-01 -0.360361D-02 -0.358214D-02 -0.118145D-02 -0.356880D-02
     37 -0.356751D-02 -0.449869D-01 -0.126790D-04 -0.213167D-01 -0.274598D-01
     38 -0.369769D-02  0.254534D-01 -0.449728D-01  0.119145D-01  0.117600D-01
     39 -0.117840D-02  0.117315D-01 -0.210778D-01 -0.271827D-01 -0.211433D-01
               26            27            28            29            30 
     26  0.240309D+00
     27  0.815055D-02  0.235454D+00
     28 -0.470183D-02  0.253832D-05  0.250698D+00
     29 -0.132729D-01  0.217709D-03 -0.377835D-01  0.249636D+00
     30 -0.391436D-04  0.902808D-02  0.323576D-02  0.279071D-02  0.252601D+00
     31 -0.487687D-02 -0.143266D-02 -0.131449D-01 -0.475146D-02 -0.905813D-04
     32  0.495190D-02  0.184701D-02  0.467499D-02  0.535891D-02 -0.123851D-03
     33  0.184906D-02  0.106245D-01  0.135507D-03  0.783473D-05  0.911843D-02
     34 -0.356785D-02 -0.368053D-02 -0.718842D-03  0.343992D-02 -0.370819D-02
     35  0.813626D-02 -0.528642D-02  0.359058D-02  0.779113D-02  0.531851D-02
     36 -0.512304D-02  0.809582D-02 -0.350482D-02  0.507688D-02  0.793568D-02
     37 -0.212112D-01  0.119469D-01 -0.314936D-01  0.231749D-01  0.122080D-01
     38 -0.455903D-01  0.259511D-01 -0.108459D-01 -0.575858D-01 -0.330837D-01
     39  0.108145D-03 -0.457095D-01 -0.235902D-01 -0.660774D-02 -0.586025D-01
               31            32            33            34            35 
     31  0.240355D+00
     32  0.350098D-01  0.240316D+00
     33  0.493763D-02  0.815617D-02  0.235425D+00
     34 -0.274625D-01 -0.212170D-01  0.119326D-01  0.238209D+00
     35  0.117655D-01 -0.456170D-01  0.259565D-01  0.572910D-02  0.236177D+00
     36 -0.211392D-01  0.110878D-03 -0.457145D-01  0.358581D-01  0.744389D-02
     37 -0.110607D-02 -0.356285D-02 -0.367731D-02  0.396167D-02 -0.649897D-03
     38 -0.362407D-02  0.813761D-02 -0.528784D-02 -0.651045D-03  0.121878D-01
     39 -0.357239D-02 -0.512475D-02  0.809551D-02 -0.397047D-02  0.115018D-02
               36            37            38            39 
     36  0.239188D+00
     37 -0.397010D-02  0.238164D+00
     38  0.114950D-02  0.572937D-02  0.236066D+00
     39  0.399944D-02  0.358674D-01  0.745620D-02  0.239180D+00
 Leave Link  716 at Wed Feb 26 07:48:01 2025, MaxMem=  2097152000 cpu:               0.1 elap:               0.0
 (Enter /nvme/h/buildsets/eb_nepheli/software/Gaussian/16.C.01-AVX2/g16/l103.exe)

 GradGradGradGradGradGradGradGradGradGradGradGradGradGradGradGradGradGrad
 Berny optimization.
 Search for a local minimum.
 Step number   1 out of a maximum of    2
 All quantities printed in internal units (Hartrees-Bohrs-Radians)
 Second derivative matrix not updated -- first step.
 ITU=  0
     Eigenvalues ---    0.17034   0.17900   0.18388   0.18966   0.19093
     Eigenvalues ---    0.19110   0.19345   0.19649   0.19817   0.20063
     Eigenvalues ---    0.21334   0.21344   0.23922   0.24937   0.25028
     Eigenvalues ---    0.31462   0.31501   0.33637   0.33988   0.36417
     Eigenvalues ---    0.36441   0.36455   0.36541   0.37624   0.37735
     Eigenvalues ---    0.38239   0.38262   0.38274   0.39520   0.39577
     Eigenvalues ---    1.13373   1.14334   1.17283
 Angle between quadratic step and forces=  18.60 degrees.
 Linear search not attempted -- first point.
 B after Tr=     0.000000   -0.000000    0.000000
         Rot=    1.000000    0.000000   -0.000000    0.000000 Ang=   0.00 deg.
 Variable       Old X    -DE/DX   Delta X   Delta X   Delta X     New X
                                 (Linear)    (Quad)   (Total)
    X1       -3.88447  -0.00001   0.00000  -0.00002  -0.00002  -3.88448
    Y1       -0.00493   0.00007   0.00000   0.00012   0.00012  -0.00480
    Z1        3.86459  -0.00004   0.00000  -0.00015  -0.00015   3.86444
    X2        3.88262   0.00002   0.00000   0.00005   0.00005   3.88267
    Y2        0.00478  -0.00008   0.00000  -0.00013  -0.00013   0.00465
    Z2       -3.86678   0.00005   0.00000   0.00020   0.00020  -3.86658
    X3        0.00417  -0.00012   0.00000  -0.00034  -0.00034   0.00383
    Y3        3.86485   0.00008   0.00000   0.00027   0.00027   3.86512
    Z3       -3.85698  -0.00004   0.00000  -0.00022  -0.00022  -3.85720
    X4       -0.00425   0.00013   0.00000   0.00036   0.00036  -0.00389
    Y4       -3.86398  -0.00009   0.00000  -0.00032  -0.00032  -3.86430
    Z4        3.85671   0.00005   0.00000   0.00023   0.00023   3.85694
    X5        0.00033  -0.00001   0.00000  -0.00001  -0.00001   0.00032
    Y5        0.00023  -0.00000   0.00000  -0.00000  -0.00000   0.00023
    Z5        0.00083  -0.00003   0.00000  -0.00002  -0.00002   0.00081
    X6       -3.89450   0.00006   0.00000   0.00017   0.00017  -3.89433
    Y6        3.86112  -0.00007   0.00000  -0.00022  -0.00022   3.86091
    Z6       -0.00829  -0.00001   0.00000  -0.00014  -0.00014  -0.00843
    X7        0.19593  -0.00003   0.00000  -0.00008  -0.00008   0.19585
    Y7       -3.88120   0.00008   0.00000   0.00033   0.00033  -3.88087
    Z7       -3.86421  -0.00004   0.00000  -0.00006  -0.00006  -3.86427
    X8       -0.19668   0.00004   0.00000   0.00010   0.00010  -0.19658
    Y8        3.88008  -0.00006   0.00000  -0.00028  -0.00028   3.87980
    Z8        3.86546   0.00004   0.00000   0.00003   0.00003   3.86549
    X9        3.87727   0.00004   0.00000   0.00003   0.00003   3.87730
    Y9        3.87378   0.00003   0.00000   0.00013   0.00013   3.87391
    Z9       -0.15262  -0.00008   0.00000  -0.00033  -0.00033  -0.15295
   X10        3.89559  -0.00007   0.00000  -0.00021  -0.00021   3.89538
   Y10       -3.85911   0.00005   0.00000   0.00016   0.00016  -3.85896
   Z10        0.00761   0.00002   0.00000   0.00018   0.00018   0.00779
   X11       -3.87689  -0.00004   0.00000  -0.00004  -0.00004  -3.87693
   Y11       -3.87552  -0.00001   0.00000  -0.00006  -0.00006  -3.87558
   Z11        0.15202   0.00009   0.00000   0.00033   0.00033   0.15235
   X12       -3.87293   0.00006   0.00000   0.00023   0.00023  -3.87270
   Y12        0.16022   0.00007   0.00000   0.00020   0.00020   0.16042
   Z12       -3.88971  -0.00003   0.00000  -0.00019  -0.00019  -3.88990
   X13        3.87380  -0.00007   0.00000  -0.00024  -0.00024   3.87356
   Y13       -0.16032  -0.00007   0.00000  -0.00020  -0.00020  -0.16052
   Z13        3.89137   0.00001   0.00000   0.00014   0.00014   3.89150
         Item               Value     Threshold  Converged?
 Maximum Force            0.000128     0.000450     YES
 RMS     Force            0.000059     0.000300     YES
 Maximum Displacement     0.000356     0.001800     YES
 RMS     Displacement     0.000197     0.001200     YES
 Predicted change in Energy=-2.151235D-07
 Optimization completed.
    -- Stationary point found.
 GradGradGradGradGradGradGradGradGradGradGradGradGradGradGradGradGradGrad

 Leave Link  103 at Wed Feb 26 07:48:01 2025, MaxMem=  2097152000 cpu:               0.4 elap:               0.1
 (Enter /nvme/h/buildsets/eb_nepheli/software/Gaussian/16.C.01-AVX2/g16/l9999.exe)
 Unable to Open any file for archive entry.
 1\1\GINC-NE08\Force\UwB97XD\def2SVP\Ag13(2)\NPATSALIDIS\26-Feb-2025\0\
 \#p wb97xd/def2SVP scf(xqc) scfcyc=999 force\\Template file\\0,2\Ag,-2
 .055571,-0.002607,2.045054\Ag,2.054594,0.002532,-2.046211\Ag,0.002207,
 2.04519,-2.041026\Ag,-0.002247,-2.044729,2.040883\Ag,0.000173,0.000121
 ,0.000439\Ag,-2.060882,2.043218,-0.004387\Ag,0.10368,-2.053843,-2.0448
 52\Ag,-0.104079,2.053251,2.045513\Ag,2.051765,2.049914,-0.080763\Ag,2.
 061459,-2.042155,0.004029\Ag,-2.051563,-2.050838,0.080443\Ag,-2.049465
 ,0.084784,-2.058345\Ag,2.049929,-0.084839,2.059222\\Version=ES64L-G16R
 evC.01\State=2-A\HF=-1911.4022512\S2=0.781252\S2-1=0.\S2A=0.750812\RMS
 D=4.977e-09\RMSF=5.906e-05\Dipole=0.0001905,0.0000121,0.0006789\Quadru
 pole=-0.0462023,0.0286075,0.0175948,1.8055425,1.7567372,1.6331423\PG=C
 01 [X(Ag13)]\\@
 The archive entry for this job was punched.


 Where a calculator on the ENIAC is equipped with 18,000
 vacuum tubes and weighs 30 tons, computers inthe future
 may  have only 1,000 vacuum tubes and weigh only 1 1/2 tons.
              ---Popular Mechanics, March 1949
 Job cpu time:       0 days  1 hours  2 minutes 30.2 seconds.
 Elapsed time:       0 days  0 hours 15 minutes 43.9 seconds.
 File lengths (MBytes):  RWF=    160 Int=      0 D2E=      0 Chk=     13 Scr=      1
 Normal termination of Gaussian 16 at Wed Feb 26 07:48:02 2025.
