 Entering Gaussian System, Link 0=g16
 Initial command:
 /nvme/h/buildsets/eb_nepheli/software/Gaussian/16.C.01-AVX2/g16/l1.exe "/onyx/data/simea/nikolas/postDoc/Active-Learning-Package/Ag-mainy/init_data/Ag14/Gau-100306.inp" -scrdir="/onyx/data/simea/nikolas/postDoc/Active-Learning-Package/Ag-mainy/init_data/Ag14/"
 Entering Link 1 = /nvme/h/buildsets/eb_nepheli/software/Gaussian/16.C.01-AVX2/g16/l1.exe PID=    100307.
  
 Copyright (c) 1988-2019, Gaussian, Inc.  All Rights Reserved.
  
 This is part of the Gaussian(R) 16 program.  It is based on
 the Gaussian(R) 09 system (copyright 2009, Gaussian, Inc.),
 the Gaussian(R) 03 system (copyright 2003, Gaussian, Inc.),
 the Gaussian(R) 98 system (copyright 1998, Gaussian, Inc.),
 the Gaussian(R) 94 system (copyright 1995, Gaussian, Inc.),
 the Gaussian 92(TM) system (copyright 1992, Gaussian, Inc.),
 the Gaussian 90(TM) system (copyright 1990, Gaussian, Inc.),
 the Gaussian 88(TM) system (copyright 1988, Gaussian, Inc.),
 the Gaussian 86(TM) system (copyright 1986, Carnegie Mellon
 University), and the Gaussian 82(TM) system (copyright 1983,
 Carnegie Mellon University). Gaussian is a federally registered
 trademark of Gaussian, Inc.
  
 This software contains proprietary and confidential information,
 including trade secrets, belonging to Gaussian, Inc.
  
 This software is provided under written license and may be
 used, copied, transmitted, or stored only in accord with that
 written license.
  
 The following legend is applicable only to US Government
 contracts under FAR:
  
                    RESTRICTED RIGHTS LEGEND
  
 Use, reproduction and disclosure by the US Government is
 subject to restrictions as set forth in subparagraphs (a)
 and (c) of the Commercial Computer Software - Restricted
 Rights clause in FAR 52.227-19.
  
 Gaussian, Inc.
 340 Quinnipiac St., Bldg. 40, Wallingford CT 06492
  
  
 ---------------------------------------------------------------
 Warning -- This program may not be used in any manner that
 competes with the business of Gaussian, Inc. or will provide
 assistance to any competitor of Gaussian, Inc.  The licensee
 of this program is prohibited from giving any competitor of
 Gaussian, Inc. access to this program.  By using this program,
 the user acknowledges that Gaussian, Inc. is engaged in the
 business of creating and licensing software in the field of
 computational chemistry and represents and warrants to the
 licensee that it is not a competitor of Gaussian, Inc. and that
 it will not use this program in any manner prohibited above.
 ---------------------------------------------------------------
  

 Cite this work as:
 Gaussian 16, Revision C.01,
 M. J. Frisch, G. W. Trucks, H. B. Schlegel, G. E. Scuseria, 
 M. A. Robb, J. R. Cheeseman, G. Scalmani, V. Barone, 
 G. A. Petersson, H. Nakatsuji, X. Li, M. Caricato, A. V. Marenich, 
 J. Bloino, B. G. Janesko, R. Gomperts, B. Mennucci, H. P. Hratchian, 
 J. V. Ortiz, A. F. Izmaylov, J. L. Sonnenberg, D. Williams-Young, 
 F. Ding, F. Lipparini, F. Egidi, J. Goings, B. Peng, A. Petrone, 
 T. Henderson, D. Ranasinghe, V. G. Zakrzewski, J. Gao, N. Rega, 
 G. Zheng, W. Liang, M. Hada, M. Ehara, K. Toyota, R. Fukuda, 
 J. Hasegawa, M. Ishida, T. Nakajima, Y. Honda, O. Kitao, H. Nakai, 
 T. Vreven, K. Throssell, J. A. Montgomery, Jr., J. E. Peralta, 
 F. Ogliaro, M. J. Bearpark, J. J. Heyd, E. N. Brothers, K. N. Kudin, 
 V. N. Staroverov, T. A. Keith, R. Kobayashi, J. Normand, 
 K. Raghavachari, A. P. Rendell, J. C. Burant, S. S. Iyengar, 
 J. Tomasi, M. Cossi, J. M. Millam, M. Klene, C. Adamo, R. Cammi, 
 J. W. Ochterski, R. L. Martin, K. Morokuma, O. Farkas, 
 J. B. Foresman, and D. J. Fox, Gaussian, Inc., Wallingford CT, 2019.
 
 ******************************************
 Gaussian 16:  ES64L-G16RevC.01  3-Jul-2019
                26-Feb-2025 
 ******************************************
 %nprocshared=4
 Will use up to    4 processors via shared memory.
 %mem=16000MB
 -------------------------------------------
 #p wb97xd/def2SVP scf(xqc) scfcyc=999 force
 -------------------------------------------
 1/10=7,30=1,38=1/1,3;
 2/12=2,17=6,18=5,40=1/2;
 3/5=43,7=101,11=2,25=1,30=1,71=1,74=-58/1,2,3;
 4//1;
 5/5=2,7=999,8=3,13=1,38=5/2,8;
 6/7=2,8=2,9=2,10=2,28=1/1;
 7/29=1/1,2,3,16;
 1/10=7,30=1/3;
 99//99;
 Leave Link    1 at Wed Feb 26 02:19:53 2025, MaxMem=  2097152000 cpu:               0.3 elap:               0.1
 (Enter /nvme/h/buildsets/eb_nepheli/software/Gaussian/16.C.01-AVX2/g16/l101.exe)
 -------------
 Template file
 -------------
 Symbolic Z-matrix:
 Charge =  0 Multiplicity = 1
 Ag                    2.02613  -0.92455  -1.51917 
 Ag                    2.02625   1.77619  -0.03928 
 Ag                   -2.67961   0.86624  -1.58498 
 Ag                   -0.46258  -0.00024  -0.00031 
 Ag                   -0.29644   0.0528    2.86644 
 Ag                   -0.2938    2.45483  -1.4779 
 Ag                   -0.29765   2.522     1.36032 
 Ag                   -0.29627  -2.50657  -1.38803 
 Ag                   -2.67981   0.93902   1.54314 
 Ag                   -0.29647  -0.08166  -2.86589 
 Ag                   -0.29753  -2.43996   1.50254 
 Ag                    4.20371  -0.00134   0.00108 
 Ag                    2.02451  -0.85271   1.56064 
 Ag                   -2.68044  -1.80405   0.0414 
 
 ITRead=  0  0  0  0  0  0  0  0  0  0  0  0  0  0
 MicOpt= -1 -1 -1 -1 -1 -1 -1 -1 -1 -1 -1 -1 -1 -1
 NAtoms=     14 NQM=       14 NQMF=       0 NMMI=      0 NMMIF=      0
                NMic=       0 NMicF=      0.
                    Isotopes and Nuclear Properties:
 (Nuclear quadrupole moments (NQMom) in fm**2, nuclear magnetic moments (NMagM)
  in nuclear magnetons)

  Atom         1           2           3           4           5           6           7           8           9          10
 IAtWgt=         107         107         107         107         107         107         107         107         107         107
 AtmWgt= 106.9050900 106.9050900 106.9050900 106.9050900 106.9050900 106.9050900 106.9050900 106.9050900 106.9050900 106.9050900
 NucSpn=           1           1           1           1           1           1           1           1           1           1
 AtZEff=  -0.0000000  -0.0000000  -0.0000000  -0.0000000  -0.0000000  -0.0000000  -0.0000000  -0.0000000  -0.0000000  -0.0000000
 NQMom=    0.0000000   0.0000000   0.0000000   0.0000000   0.0000000   0.0000000   0.0000000   0.0000000   0.0000000   0.0000000
 NMagM=   -0.1135700  -0.1135700  -0.1135700  -0.1135700  -0.1135700  -0.1135700  -0.1135700  -0.1135700  -0.1135700  -0.1135700
 AtZNuc=  47.0000000  47.0000000  47.0000000  47.0000000  47.0000000  47.0000000  47.0000000  47.0000000  47.0000000  47.0000000

  Atom        11          12          13          14
 IAtWgt=         107         107         107         107
 AtmWgt= 106.9050900 106.9050900 106.9050900 106.9050900
 NucSpn=           1           1           1           1
 AtZEff=  -0.0000000  -0.0000000  -0.0000000  -0.0000000
 NQMom=    0.0000000   0.0000000   0.0000000   0.0000000
 NMagM=   -0.1135700  -0.1135700  -0.1135700  -0.1135700
 AtZNuc=  47.0000000  47.0000000  47.0000000  47.0000000
 Leave Link  101 at Wed Feb 26 02:19:54 2025, MaxMem=  2097152000 cpu:               0.1 elap:               0.1
 (Enter /nvme/h/buildsets/eb_nepheli/software/Gaussian/16.C.01-AVX2/g16/l103.exe)

 GradGradGradGradGradGradGradGradGradGradGradGradGradGradGradGradGradGrad
 Berny optimization.
 Initialization pass.
 Trust Radius=3.00D-01 FncErr=1.00D-07 GrdErr=1.00D-07 EigMax=2.50D+02 EigMin=1.00D-04
 Number of steps in this run=      2 maximum allowed number of steps=      2.
 GradGradGradGradGradGradGradGradGradGradGradGradGradGradGradGradGradGrad

 Leave Link  103 at Wed Feb 26 02:19:54 2025, MaxMem=  2097152000 cpu:               0.0 elap:               0.0
 (Enter /nvme/h/buildsets/eb_nepheli/software/Gaussian/16.C.01-AVX2/g16/l202.exe)
                          Input orientation:                          
 ---------------------------------------------------------------------
 Center     Atomic      Atomic             Coordinates (Angstroms)
 Number     Number       Type             X           Y           Z
 ---------------------------------------------------------------------
      1         47           0        2.026126   -0.924551   -1.519174
      2         47           0        2.026250    1.776187   -0.039276
      3         47           0       -2.679608    0.866242   -1.584980
      4         47           0       -0.462583   -0.000243   -0.000307
      5         47           0       -0.296444    0.052803    2.866438
      6         47           0       -0.293795    2.454828   -1.477896
      7         47           0       -0.297647    2.522003    1.360321
      8         47           0       -0.296268   -2.506573   -1.388030
      9         47           0       -2.679812    0.939020    1.543137
     10         47           0       -0.296465   -0.081655   -2.865889
     11         47           0       -0.297528   -2.439960    1.502538
     12         47           0        4.203713   -0.001339    0.001078
     13         47           0        2.024506   -0.852713    1.560638
     14         47           0       -2.680443   -1.804049    0.041403
 ---------------------------------------------------------------------
                    Distance matrix (angstroms):
                    1          2          3          4          5
     1  Ag   0.000000
     2  Ag   3.079624   0.000000
     3  Ag   5.035395   5.036100   0.000000
     4  Ag   3.058590   3.058024   2.859578   0.000000
     5  Ag   5.057978   4.099772   5.114321   2.872045   0.000000
     6  Ag   4.099261   2.812968   2.868305   2.870389   4.964169
     7  Ag   5.056693   2.813469   4.134015   2.870581   2.892289
     8  Ag   2.813095   5.055221   4.134608   2.869691   4.964968
     9  Ag   5.915784   5.035067   3.128964   2.860164   2.866522
    10  Ag   2.813991   4.103209   2.866811   2.871547   5.733904
    11  Ag   4.102021   5.055001   5.112538   2.870193   2.841495
    12  Ag   2.811649   2.811151   7.116768   4.666296   5.335226
    13  Ag   3.080650   3.077473   5.914255   3.057592   2.812807
    14  Ag   5.035942   5.914183   3.126592   2.859084   4.136686
                    6          7          8          9         10
     6  Ag   0.000000
     7  Ag   2.839014   0.000000
     8  Ag   4.962215   5.730621   0.000000
     9  Ag   4.137317   2.866002   5.113231   0.000000
    10  Ag   2.891414   4.963858   2.839770   5.114844   0.000000
    11  Ag   5.730790   4.964001   2.891336   4.134541   4.964349
    12  Ag   5.333638   5.336388   5.334384   7.116540   5.336436
    13  Ag   5.054408   4.101369   4.100718   5.034006   5.057230
    14  Ag   5.112963   5.111946   2.867248   3.127240   4.135497
                   11         12         13         14
    11  Ag   0.000000
    12  Ag   5.335019   0.000000
    13  Ag   2.813285   2.811762   0.000000
    14  Ag   2.866633   7.116389   5.034845   0.000000
 Stoichiometry    Ag14
 Framework group  C1[X(Ag14)]
 Deg. of freedom    36
 Full point group                 C1      NOp   1
 Largest Abelian subgroup         C1      NOp   1
 Largest concise Abelian subgroup C1      NOp   1
                         Standard orientation:                         
 ---------------------------------------------------------------------
 Center     Atomic      Atomic             Coordinates (Angstroms)
 Number     Number       Type             X           Y           Z
 ---------------------------------------------------------------------
      1         47           0        2.026203    1.666412   -0.620841
      2         47           0        2.025973   -0.296682    1.751994
      3         47           0       -2.679811    1.392935    1.149427
      4         47           0       -0.462583    0.000341   -0.000255
      5         47           0       -0.296327   -2.824878   -0.489273
      6         47           0       -0.294239    0.987941    2.689622
      7         47           0       -0.297978   -1.811932    2.219837
      8         47           0       -0.295941    1.836223   -2.199549
      9         47           0       -2.679890   -1.692685    0.630422
     10         47           0       -0.296578    2.829777    0.460741
     11         47           0       -0.297085   -1.014955   -2.679768
     12         47           0        4.203713   -0.000748   -0.000845
     13         47           0        2.024706   -1.371593   -1.131651
     14         47           0       -2.680162    0.299844   -1.779861
 ---------------------------------------------------------------------
 Rotational constants (GHZ):           0.0689675           0.0546372           0.0546148
 Leave Link  202 at Wed Feb 26 02:19:54 2025, MaxMem=  2097152000 cpu:               0.0 elap:               0.0
 (Enter /nvme/h/buildsets/eb_nepheli/software/Gaussian/16.C.01-AVX2/g16/l301.exe)
 Standard basis: def2SVP (5D, 7F)
 Ernie: Thresh=  0.10000D-02 Tol=  0.10000D-05 Strict=F.
 There are   504 symmetry adapted cartesian basis functions of A   symmetry.
 There are   434 symmetry adapted basis functions of A   symmetry.
   434 basis functions,   910 primitive gaussians,   504 cartesian basis functions
   133 alpha electrons      133 beta electrons
       nuclear repulsion energy      4566.7228258129 Hartrees.
 IExCor= 4639 DFT=T Ex+Corr=wB97XD ExCW=0 ScaHFX=  1.000000
 ScaDFX=  1.000000  1.000000  1.000000  1.000000 ScalE2=  1.000000  1.000000
 IRadAn=      5 IRanWt=     -1 IRanGd=            0 ICorTp=0 IEmpDi=121
 HFx  wShort=  0.000000 wLong=  0.200000 cFull=  0.222036 cShort=  0.000000 cLong=  0.777964
 DFx  wShort=  0.000000 wLong=  0.200000 cFull=  0.000000 cShort=  0.000000 cLong=  1.000000
 NAtoms=   14 NActive=   14 NUniq=   14 SFac= 1.00D+00 NAtFMM=   60 NAOKFM=F Big=F
 Integral buffers will be    131072 words long.
 Raffenetti 2 integral format.
 Two-electron integral symmetry is turned on.
 R6Disp:  Grimme-D2 Dispersion energy=       -0.0580879837 Hartrees.
 Nuclear repulsion after empirical dispersion term =     4566.6647378292 Hartrees.
 Leave Link  301 at Wed Feb 26 02:19:54 2025, MaxMem=  2097152000 cpu:               0.1 elap:               0.0
 (Enter /nvme/h/buildsets/eb_nepheli/software/Gaussian/16.C.01-AVX2/g16/l302.exe)
 NPDir=0 NMtPBC=     1 NCelOv=     1 NCel=       1 NClECP=     1 NCelD=      1
         NCelK=      1 NCelE2=     1 NClLst=     1 CellRange=     0.0.
 One-electron integrals computed using PRISM.
 One-electron integral symmetry used in STVInt
   1 Symmetry operations used in ECPInt.
 ECPInt:  NShTT=   11935 NPrTT=   35721 LenC2=   11472 LenP2D=   28359.
 LDataN:  DoStor=T MaxTD1= 7 Len=  274
 NBasis=   434 RedAO= T EigKep=  1.40D-04  NBF=   434
 NBsUse=   434 1.00D-06 EigRej= -1.00D+00 NBFU=   434
 Precomputing XC quadrature grid using
 IXCGrd= 4 IRadAn=           5 IRanWt=          -1 IRanGd=           0 AccXCQ= 0.00D+00.
 Defaulting to unpruned grid for atomic number  47.
 Defaulting to unpruned grid for atomic number  47.
 Defaulting to unpruned grid for atomic number  47.
 Defaulting to unpruned grid for atomic number  47.
 Generated NRdTot=       0 NPtTot=           0 NUsed=           0 NTot=          32
 NSgBfM=   503   503   503   503   503 MxSgAt=    14 MxSgA2=    14.
 Leave Link  302 at Wed Feb 26 02:19:58 2025, MaxMem=  2097152000 cpu:              13.6 elap:               3.5
 (Enter /nvme/h/buildsets/eb_nepheli/software/Gaussian/16.C.01-AVX2/g16/l303.exe)
 DipDrv:  MaxL=1.
 Leave Link  303 at Wed Feb 26 02:19:58 2025, MaxMem=  2097152000 cpu:               0.1 elap:               0.1
 (Enter /nvme/h/buildsets/eb_nepheli/software/Gaussian/16.C.01-AVX2/g16/l401.exe)
 ExpMin= 3.75D-02 ExpMax= 9.09D+00 ExpMxC= 9.09D+00 IAcc=3 IRadAn=         5 AccDes= 0.00D+00
 Harris functional with IExCor= 4639 and IRadAn=       5 diagonalized for initial guess.
 HarFok:  IExCor= 4639 AccDes= 0.00D+00 IRadAn=         5 IDoV= 1 UseB2=F ITyADJ=14
 ICtDFT=  3500011 ScaDFX=  1.000000  1.000000  1.000000  1.000000
 Defaulting to unpruned grid for atomic number  47.
 FoFCou: FMM=F IPFlag=           0 FMFlag=      100000 FMFlg1=           0
         NFxFlg=           0 DoJE=T BraDBF=F KetDBF=T FulRan=T
         wScrn=  0.000000 ICntrl=       500 IOpCl=  0 I1Cent=   200000004 NGrid=           0
         NMat0=    1 NMatS0=      1 NMatT0=    0 NMatD0=    1 NMtDS0=    0 NMtDT0=    0
 Petite list used in FoFCou.
 Harris En= -2003.51617899149    
 JPrj=0 DoOrth=F DoCkMO=F.
 Leave Link  401 at Wed Feb 26 02:20:02 2025, MaxMem=  2097152000 cpu:              13.5 elap:               3.4
 (Enter /nvme/h/buildsets/eb_nepheli/software/Gaussian/16.C.01-AVX2/g16/l502.exe)
 Integral symmetry usage will be decided dynamically.
 Closed shell SCF:
 Using DIIS extrapolation, IDIIS=  1040.
 NGot=  2097152000 LenX=  2096636186 LenY=  2096381666
 Requested convergence on RMS density matrix=1.00D-08 within 128 cycles.
 Requested convergence on MAX density matrix=1.00D-06.
 Requested convergence on             energy=1.00D-06.
 No special actions if energy rises.
 Fock matrices will be formed incrementally for  20 cycles.

 Cycle   1  Pass 1  IDiag  1:
 FoFJK:  IHMeth= 1 ICntrl=       0 DoSepK=T KAlg= 0 I1Cent=           0 FoldK=F
 IRaf=         1 NMat=       1 IRICut=       1 DoRegI=T DoRafI=F ISym2E= 0 IDoP0=0 IntGTp=1.
 FoFCou: FMM=F IPFlag=           0 FMFlag=      100000 FMFlg1=           0
         NFxFlg=           0 DoJE=T BraDBF=F KetDBF=F FulRan=T
         wScrn=  0.000000 ICntrl=       500 IOpCl=  0 I1Cent=           0 NGrid=           0
         NMat0=    1 NMatS0=      1 NMatT0=    0 NMatD0=    1 NMtDS0=    0 NMtDT0=    0
 Symmetry not used in FoFCou.
 Defaulting to unpruned grid for atomic number  47.
 Defaulting to unpruned grid for atomic number  47.
 Defaulting to unpruned grid for atomic number  47.
 Defaulting to unpruned grid for atomic number  47.
 E= -2037.95783915702    
 DIIS: error= 1.80D-01 at cycle   1 NSaved=   1.
 NSaved= 1 IEnMin= 1 EnMin= -2037.95783915702     IErMin= 1 ErrMin= 1.80D-01
 ErrMax= 1.80D-01  0.00D+00 EMaxC= 1.00D-01 BMatC= 2.36D+01 BMatP= 2.36D+01
 IDIUse=3 WtCom= 0.00D+00 WtEn= 1.00D+00
 Coeff-Com:  0.100D+01
 Coeff-En:   0.100D+01
 Coeff:      0.100D+01
 Gap=     0.305 Goal=   None    Shift=    0.000
 GapD=    0.305 DampG=1.000 DampE=0.125 DampFc=0.1250 IDamp=-1.
 Damping current iteration by 1.25D-01
 RMSDP=4.77D-02 MaxDP=2.94D+00              OVMax= 7.50D-01

 Cycle   2  Pass 1  IDiag  1:
 RMSU=  5.71D-03    CP:  9.59D-01
 E= -2042.78708705247     Delta-E=       -4.829247895449 Rises=F Damp=T
 DIIS: error= 1.36D-01 at cycle   2 NSaved=   2.
 NSaved= 2 IEnMin= 2 EnMin= -2042.78708705247     IErMin= 2 ErrMin= 1.36D-01
 ErrMax= 1.36D-01  0.00D+00 EMaxC= 1.00D-01 BMatC= 1.29D+01 BMatP= 2.36D+01
 IDIUse=3 WtCom= 0.00D+00 WtEn= 1.00D+00
 Coeff-Com: -0.267D+01 0.367D+01
 Coeff-En:   0.000D+00 0.100D+01
 Coeff:      0.000D+00 0.100D+01
 Gap=     0.088 Goal=   None    Shift=    0.000
 RMSDP=3.57D-02 MaxDP=1.80D+00 DE=-4.83D+00 OVMax= 4.18D-01

 Cycle   3  Pass 1  IDiag  1:
 RMSU=  2.26D-02    CP:  6.49D-01  3.00D+00
 E= -2048.92704219891     Delta-E=       -6.139955146436 Rises=F Damp=F
 DIIS: error= 1.07D-01 at cycle   3 NSaved=   3.
 NSaved= 3 IEnMin= 3 EnMin= -2048.92704219891     IErMin= 3 ErrMin= 1.07D-01
 ErrMax= 1.07D-01  0.00D+00 EMaxC= 1.00D-01 BMatC= 8.87D+00 BMatP= 1.29D+01
 IDIUse=3 WtCom= 0.00D+00 WtEn= 1.00D+00
 EnCoef did   100 forward-backward iterations
 Coeff-Com: -0.199D+01 0.284D+01 0.154D+00
 Coeff-En:   0.314D+00 0.129D-01 0.673D+00
 Coeff:      0.314D+00 0.129D-01 0.673D+00
 Gap=     0.069 Goal=   None    Shift=    0.000
 RMSDP=3.73D-02 MaxDP=2.87D+00 DE=-6.14D+00 OVMax= 8.05D-01

 Cycle   4  Pass 1  IDiag  1:
 RMSU=  2.07D-02    CP:  6.36D-01  1.06D+00  1.28D-01
 E= -2037.44458518592     Delta-E=       11.482457012985 Rises=F Damp=F
 DIIS: error= 1.32D-01 at cycle   4 NSaved=   4.
 NSaved= 4 IEnMin= 3 EnMin= -2048.92704219891     IErMin= 3 ErrMin= 1.07D-01
 ErrMax= 1.32D-01  0.00D+00 EMaxC= 1.00D-01 BMatC= 1.63D+01 BMatP= 8.87D+00
 IDIUse=2 WtCom= 0.00D+00 WtEn= 1.00D+00
 EnCoef did    21 forward-backward iterations
 Coeff-En:   0.145D+00 0.167D-03 0.620D+00 0.235D+00
 Coeff:      0.145D+00 0.167D-03 0.620D+00 0.235D+00
 Gap=     0.400 Goal=   None    Shift=    0.000
 RMSDP=1.96D-02 MaxDP=1.73D+00 DE= 1.15D+01 OVMax= 9.47D-01

 Cycle   5  Pass 1  IDiag  1:
 RMSU=  1.51D-02    CP:  5.06D-01  1.33D+00  1.16D-01  4.62D-01
 E= -2054.81385379919     Delta-E=      -17.369268613271 Rises=F Damp=F
 DIIS: error= 8.29D-02 at cycle   5 NSaved=   5.
 NSaved= 5 IEnMin= 5 EnMin= -2054.81385379919     IErMin= 5 ErrMin= 8.29D-02
 ErrMax= 8.29D-02  0.00D+00 EMaxC= 1.00D-01 BMatC= 3.22D+00 BMatP= 8.87D+00
 IDIUse=3 WtCom= 1.71D-01 WtEn= 8.29D-01
 EnCoef did     3 forward-backward iterations
 Coeff-Com: -0.172D+01 0.236D+01 0.930D-01 0.123D+00 0.147D+00
 Coeff-En:   0.000D+00 0.000D+00 0.152D-01 0.213D+00 0.772D+00
 Coeff:     -0.294D+00 0.403D+00 0.285D-01 0.197D+00 0.665D+00
 Gap=     0.367 Goal=   None    Shift=    0.000
 RMSDP=1.46D-02 MaxDP=1.27D+00 DE=-1.74D+01 OVMax= 7.57D-01

 Cycle   6  Pass 1  IDiag  1:
 RMSU=  1.19D-02    CP:  5.05D-01  1.85D+00  2.03D-01  6.20D-01  5.45D-01
 E= -2056.45786104013     Delta-E=       -1.644007240934 Rises=F Damp=F
 DIIS: error= 5.25D-02 at cycle   6 NSaved=   6.
 NSaved= 6 IEnMin= 6 EnMin= -2056.45786104013     IErMin= 6 ErrMin= 5.25D-02
 ErrMax= 5.25D-02  0.00D+00 EMaxC= 1.00D-01 BMatC= 2.36D+00 BMatP= 3.22D+00
 IDIUse=3 WtCom= 4.75D-01 WtEn= 5.25D-01
 EnCoef did     6 forward-backward iterations
 Coeff-Com: -0.104D+01 0.142D+01 0.616D-04 0.948D-01 0.243D+00 0.285D+00
 Coeff-En:   0.000D+00 0.000D+00 0.000D+00 0.511D-01 0.384D+00 0.565D+00
 Coeff:     -0.493D+00 0.672D+00 0.292D-04 0.718D-01 0.317D+00 0.432D+00
 Gap=     0.149 Goal=   None    Shift=    0.000
 RMSDP=1.06D-02 MaxDP=8.66D-01 DE=-1.64D+00 OVMax= 3.48D-01

 Cycle   7  Pass 1  IDiag  1:
 RMSU=  6.44D-03    CP:  4.55D-01  1.38D+00  1.59D-01  5.88D-01  7.54D-01
                    CP:  4.22D-01
 E= -2058.25558256938     Delta-E=       -1.797721529259 Rises=F Damp=F
 DIIS: error= 1.49D-02 at cycle   7 NSaved=   7.
 NSaved= 7 IEnMin= 7 EnMin= -2058.25558256938     IErMin= 7 ErrMin= 1.49D-02
 ErrMax= 1.49D-02  0.00D+00 EMaxC= 1.00D-01 BMatC= 2.14D-01 BMatP= 2.36D+00
 IDIUse=3 WtCom= 8.51D-01 WtEn= 1.49D-01
 Coeff-Com: -0.467D+00 0.669D+00-0.255D-01-0.649D-02 0.337D-01 0.150D+00
 Coeff-Com:  0.646D+00
 Coeff-En:   0.000D+00 0.000D+00 0.000D+00 0.000D+00 0.000D+00 0.000D+00
 Coeff-En:   0.100D+01
 Coeff:     -0.397D+00 0.569D+00-0.217D-01-0.552D-02 0.287D-01 0.128D+00
 Coeff:      0.699D+00
 Gap=     0.149 Goal=   None    Shift=    0.000
 RMSDP=3.43D-03 MaxDP=1.52D-01 DE=-1.80D+00 OVMax= 2.36D-01

 Cycle   8  Pass 1  IDiag  1:
 RMSU=  2.55D-03    CP:  4.52D-01  1.42D+00  1.69D-01  5.49D-01  7.93D-01
                    CP:  5.29D-01  7.55D-01
 E= -2058.38403543656     Delta-E=       -0.128452867173 Rises=F Damp=F
 DIIS: error= 1.09D-02 at cycle   8 NSaved=   8.
 NSaved= 8 IEnMin= 8 EnMin= -2058.38403543656     IErMin= 8 ErrMin= 1.09D-02
 ErrMax= 1.09D-02  0.00D+00 EMaxC= 1.00D-01 BMatC= 7.95D-02 BMatP= 2.14D-01
 IDIUse=3 WtCom= 8.91D-01 WtEn= 1.09D-01
 Coeff-Com: -0.145D+00 0.219D+00-0.382D-01 0.569D-03-0.944D-02-0.135D-02
 Coeff-Com:  0.295D+00 0.680D+00
 Coeff-En:   0.000D+00 0.000D+00 0.000D+00 0.000D+00 0.000D+00 0.000D+00
 Coeff-En:   0.185D+00 0.815D+00
 Coeff:     -0.129D+00 0.195D+00-0.340D-01 0.507D-03-0.841D-02-0.120D-02
 Coeff:      0.283D+00 0.695D+00
 Gap=     0.148 Goal=   None    Shift=    0.000
 RMSDP=2.00D-03 MaxDP=1.41D-01 DE=-1.28D-01 OVMax= 6.91D-02

 Cycle   9  Pass 1  IDiag  1:
 RMSU=  1.16D-03    CP:  4.37D-01  1.39D+00  1.56D-01  5.47D-01  8.01D-01
                    CP:  4.57D-01  9.33D-01  8.83D-01
 E= -2058.45732416409     Delta-E=       -0.073288727534 Rises=F Damp=F
 DIIS: error= 3.64D-03 at cycle   9 NSaved=   9.
 NSaved= 9 IEnMin= 9 EnMin= -2058.45732416409     IErMin= 9 ErrMin= 3.64D-03
 ErrMax= 3.64D-03  0.00D+00 EMaxC= 1.00D-01 BMatC= 6.09D-03 BMatP= 7.95D-02
 IDIUse=3 WtCom= 9.64D-01 WtEn= 3.64D-02
 Coeff-Com: -0.305D-01 0.503D-01-0.209D-01 0.804D-03-0.160D-01-0.126D-01
 Coeff-Com:  0.479D-01 0.206D+00 0.775D+00
 Coeff-En:   0.000D+00 0.000D+00 0.000D+00 0.000D+00 0.000D+00 0.000D+00
 Coeff-En:   0.000D+00 0.000D+00 0.100D+01
 Coeff:     -0.294D-01 0.485D-01-0.201D-01 0.775D-03-0.155D-01-0.121D-01
 Coeff:      0.462D-01 0.198D+00 0.783D+00
 Gap=     0.151 Goal=   None    Shift=    0.000
 RMSDP=7.17D-04 MaxDP=4.85D-02 DE=-7.33D-02 OVMax= 3.36D-02

 Cycle  10  Pass 1  IDiag  1:
 RMSU=  5.22D-04    CP:  4.31D-01  1.38D+00  1.55D-01  5.44D-01  7.99D-01
                    CP:  4.53D-01  9.76D-01  9.32D-01  1.24D+00
 E= -2058.46363153034     Delta-E=       -0.006307366251 Rises=F Damp=F
 DIIS: error= 1.03D-03 at cycle  10 NSaved=  10.
 NSaved=10 IEnMin=10 EnMin= -2058.46363153034     IErMin=10 ErrMin= 1.03D-03
 ErrMax= 1.03D-03  0.00D+00 EMaxC= 1.00D-01 BMatC= 1.39D-03 BMatP= 6.09D-03
 IDIUse=3 WtCom= 9.90D-01 WtEn= 1.03D-02
 Coeff-Com:  0.469D-02-0.554D-02-0.412D-02 0.164D-04-0.312D-02 0.100D-01
 Coeff-Com: -0.129D-01-0.122D+00 0.268D+00 0.866D+00
 Coeff-En:   0.000D+00 0.000D+00 0.000D+00 0.000D+00 0.000D+00 0.000D+00
 Coeff-En:   0.000D+00 0.000D+00 0.000D+00 0.100D+01
 Coeff:      0.464D-02-0.548D-02-0.408D-02 0.162D-04-0.309D-02 0.992D-02
 Coeff:     -0.127D-01-0.121D+00 0.265D+00 0.867D+00
 Gap=     0.152 Goal=   None    Shift=    0.000
 RMSDP=4.24D-04 MaxDP=2.04D-02 DE=-6.31D-03 OVMax= 2.68D-02

 Cycle  11  Pass 1  IDiag  1:
 RMSU=  2.48D-04    CP:  4.28D-01  1.38D+00  1.55D-01  5.45D-01  7.95D-01
                    CP:  4.51D-01  1.00D+00  8.92D-01  1.41D+00  1.27D+00
 E= -2058.46579783287     Delta-E=       -0.002166302529 Rises=F Damp=F
 DIIS: error= 4.26D-04 at cycle  11 NSaved=  11.
 NSaved=11 IEnMin=11 EnMin= -2058.46579783287     IErMin=11 ErrMin= 4.26D-04
 ErrMax= 4.26D-04  0.00D+00 EMaxC= 1.00D-01 BMatC= 7.71D-05 BMatP= 1.39D-03
 IDIUse=3 WtCom= 9.96D-01 WtEn= 4.26D-03
 Coeff-Com: -0.186D-02 0.204D-02 0.393D-03-0.600D-04-0.192D-03 0.157D-02
 Coeff-Com: -0.536D-02-0.379D-01 0.233D-01 0.249D+00 0.769D+00
 Coeff-En:   0.000D+00 0.000D+00 0.000D+00 0.000D+00 0.000D+00 0.000D+00
 Coeff-En:   0.000D+00 0.000D+00 0.000D+00 0.000D+00 0.100D+01
 Coeff:     -0.185D-02 0.203D-02 0.391D-03-0.597D-04-0.192D-03 0.156D-02
 Coeff:     -0.534D-02-0.377D-01 0.232D-01 0.248D+00 0.770D+00
 Gap=     0.151 Goal=   None    Shift=    0.000
 RMSDP=1.38D-04 MaxDP=1.02D-02 DE=-2.17D-03 OVMax= 1.11D-02

 Cycle  12  Pass 1  IDiag  1:
 RMSU=  8.03D-05    CP:  4.28D-01  1.38D+00  1.55D-01  5.45D-01  7.95D-01
                    CP:  4.52D-01  1.00D+00  8.92D-01  1.40D+00  1.42D+00
                    CP:  1.32D+00
 E= -2058.46603112777     Delta-E=       -0.000233294903 Rises=F Damp=F
 DIIS: error= 2.79D-04 at cycle  12 NSaved=  12.
 NSaved=12 IEnMin=12 EnMin= -2058.46603112777     IErMin=12 ErrMin= 2.79D-04
 ErrMax= 2.79D-04  0.00D+00 EMaxC= 1.00D-01 BMatC= 2.06D-05 BMatP= 7.71D-05
 IDIUse=3 WtCom= 9.97D-01 WtEn= 2.79D-03
 Coeff-Com: -0.684D-03 0.665D-03 0.308D-03-0.595D-04 0.866D-04-0.214D-02
 Coeff-Com: -0.398D-02 0.676D-02-0.329D-02-0.232D-01 0.215D+00 0.811D+00
 Coeff-En:   0.000D+00 0.000D+00 0.000D+00 0.000D+00 0.000D+00 0.000D+00
 Coeff-En:   0.000D+00 0.000D+00 0.000D+00 0.000D+00 0.000D+00 0.100D+01
 Coeff:     -0.682D-03 0.664D-03 0.307D-03-0.594D-04 0.863D-04-0.214D-02
 Coeff:     -0.397D-02 0.675D-02-0.329D-02-0.231D-01 0.214D+00 0.811D+00
 Gap=     0.151 Goal=   None    Shift=    0.000
 RMSDP=9.77D-05 MaxDP=5.72D-03 DE=-2.33D-04 OVMax= 7.32D-03

 Cycle  13  Pass 1  IDiag  1:
 RMSU=  4.10D-05    CP:  4.28D-01  1.38D+00  1.55D-01  5.45D-01  7.96D-01
                    CP:  4.51D-01  1.00D+00  8.95D-01  1.41D+00  1.48D+00
                    CP:  1.55D+00  1.69D+00
 E= -2058.46613883044     Delta-E=       -0.000107702664 Rises=F Damp=F
 DIIS: error= 2.24D-04 at cycle  13 NSaved=  13.
 NSaved=13 IEnMin=13 EnMin= -2058.46613883044     IErMin=13 ErrMin= 2.24D-04
 ErrMax= 2.24D-04  0.00D+00 EMaxC= 1.00D-01 BMatC= 4.90D-06 BMatP= 2.06D-05
 IDIUse=3 WtCom= 9.98D-01 WtEn= 2.24D-03
 Coeff-Com: -0.202D-03 0.235D-03-0.182D-05 0.513D-04 0.220D-03-0.683D-03
 Coeff-Com: -0.968D-03 0.724D-02 0.213D-02-0.595D-01-0.154D+00 0.240D-01
 Coeff-Com:  0.118D+01
 Coeff-En:   0.000D+00 0.000D+00 0.000D+00 0.000D+00 0.000D+00 0.000D+00
 Coeff-En:   0.000D+00 0.000D+00 0.000D+00 0.000D+00 0.000D+00 0.000D+00
 Coeff-En:   0.100D+01
 Coeff:     -0.202D-03 0.235D-03-0.182D-05 0.512D-04 0.219D-03-0.681D-03
 Coeff:     -0.966D-03 0.722D-02 0.213D-02-0.593D-01-0.154D+00 0.240D-01
 Coeff:      0.118D+01
 Gap=     0.152 Goal=   None    Shift=    0.000
 RMSDP=9.75D-05 MaxDP=5.72D-03 DE=-1.08D-04 OVMax= 9.03D-03

 Cycle  14  Pass 1  IDiag  1:
 RMSU=  2.28D-05    CP:  4.27D-01  1.38D+00  1.56D-01  5.45D-01  7.96D-01
                    CP:  4.51D-01  9.99D-01  8.97D-01  1.41D+00  1.53D+00
                    CP:  1.80D+00  2.43D+00  1.76D+00
 E= -2058.46620650504     Delta-E=       -0.000067674601 Rises=F Damp=F
 DIIS: error= 1.27D-04 at cycle  14 NSaved=  14.
 NSaved=14 IEnMin=14 EnMin= -2058.46620650504     IErMin=14 ErrMin= 1.27D-04
 ErrMax= 1.27D-04  0.00D+00 EMaxC= 1.00D-01 BMatC= 2.08D-06 BMatP= 4.90D-06
 IDIUse=3 WtCom= 9.99D-01 WtEn= 1.27D-03
 Coeff-Com: -0.495D-03 0.745D-03-0.610D-04 0.176D-04-0.672D-04 0.573D-03
 Coeff-Com:  0.805D-03-0.174D-02 0.206D-02-0.902D-02-0.126D+00-0.319D+00
 Coeff-Com:  0.554D+00 0.899D+00
 Coeff-En:   0.000D+00 0.000D+00 0.000D+00 0.000D+00 0.000D+00 0.000D+00
 Coeff-En:   0.000D+00 0.000D+00 0.000D+00 0.000D+00 0.000D+00 0.000D+00
 Coeff-En:   0.000D+00 0.100D+01
 Coeff:     -0.494D-03 0.744D-03-0.610D-04 0.176D-04-0.671D-04 0.572D-03
 Coeff:      0.804D-03-0.174D-02 0.206D-02-0.900D-02-0.126D+00-0.319D+00
 Coeff:      0.553D+00 0.899D+00
 Gap=     0.152 Goal=   None    Shift=    0.000
 RMSDP=6.78D-05 MaxDP=3.69D-03 DE=-6.77D-05 OVMax= 6.11D-03

 Cycle  15  Pass 1  IDiag  1:
 RMSU=  1.09D-05    CP:  4.27D-01  1.38D+00  1.56D-01  5.45D-01  7.95D-01
                    CP:  4.52D-01  9.98D-01  8.97D-01  1.41D+00  1.55D+00
                    CP:  1.96D+00  2.94D+00  2.40D+00  1.70D+00
 E= -2058.46622971713     Delta-E=       -0.000023212094 Rises=F Damp=F
 DIIS: error= 6.49D-05 at cycle  15 NSaved=  15.
 NSaved=15 IEnMin=15 EnMin= -2058.46622971713     IErMin=15 ErrMin= 6.49D-05
 ErrMax= 6.49D-05  0.00D+00 EMaxC= 1.00D-01 BMatC= 4.41D-07 BMatP= 2.08D-06
 IDIUse=1 WtCom= 1.00D+00 WtEn= 0.00D+00
 Coeff-Com: -0.422D-05 0.526D-04-0.295D-04 0.199D-06 0.807D-05 0.233D-03
 Coeff-Com:  0.393D-03-0.144D-02-0.237D-02 0.581D-02 0.555D-02-0.861D-01
 Coeff-Com: -0.422D-02 0.306D-01 0.105D+01
 Coeff:     -0.422D-05 0.526D-04-0.295D-04 0.199D-06 0.807D-05 0.233D-03
 Coeff:      0.393D-03-0.144D-02-0.237D-02 0.581D-02 0.555D-02-0.861D-01
 Coeff:     -0.422D-02 0.306D-01 0.105D+01
 Gap=     0.152 Goal=   None    Shift=    0.000
 RMSDP=2.94D-05 MaxDP=1.17D-03 DE=-2.32D-05 OVMax= 2.80D-03

 Cycle  16  Pass 1  IDiag  1:
 RMSU=  1.19D-05    CP:  4.27D-01  1.38D+00  1.56D-01  5.45D-01  7.95D-01
                    CP:  4.52D-01  9.98D-01  8.97D-01  1.41D+00  1.56D+00
                    CP:  2.02D+00  3.00D+00  2.73D+00  2.15D+00  1.62D+00
 E= -2058.46623482393     Delta-E=       -0.000005106793 Rises=F Damp=F
 DIIS: error= 3.23D-05 at cycle  16 NSaved=  16.
 NSaved=16 IEnMin=16 EnMin= -2058.46623482393     IErMin=16 ErrMin= 3.23D-05
 ErrMax= 3.23D-05  0.00D+00 EMaxC= 1.00D-01 BMatC= 1.49D-07 BMatP= 4.41D-07
 IDIUse=1 WtCom= 1.00D+00 WtEn= 0.00D+00
 Coeff-Com: -0.157D-04 0.402D-04 0.128D-04-0.720D-05 0.244D-04-0.685D-04
 Coeff-Com:  0.188D-03-0.205D-03-0.168D-02 0.580D-02 0.446D-01 0.495D-01
 Coeff-Com: -0.183D+00-0.296D+00 0.480D+00 0.901D+00
 Coeff:     -0.157D-04 0.402D-04 0.128D-04-0.720D-05 0.244D-04-0.685D-04
 Coeff:      0.188D-03-0.205D-03-0.168D-02 0.580D-02 0.446D-01 0.495D-01
 Coeff:     -0.183D+00-0.296D+00 0.480D+00 0.901D+00
 Gap=     0.152 Goal=   None    Shift=    0.000
 RMSDP=2.24D-05 MaxDP=7.42D-04 DE=-5.11D-06 OVMax= 1.96D-03

 Cycle  17  Pass 1  IDiag  1:
 RMSU=  3.11D-06    CP:  4.27D-01  1.38D+00  1.56D-01  5.45D-01  7.95D-01
                    CP:  4.51D-01  9.98D-01  8.97D-01  1.41D+00  1.57D+00
                    CP:  2.06D+00  3.00D+00  2.97D+00  2.50D+00  2.23D+00
                    CP:  2.00D+00
 E= -2058.46623664749     Delta-E=       -0.000001823563 Rises=F Damp=F
 DIIS: error= 1.11D-05 at cycle  17 NSaved=  17.
 NSaved=17 IEnMin=17 EnMin= -2058.46623664749     IErMin=17 ErrMin= 1.11D-05
 ErrMax= 1.11D-05  0.00D+00 EMaxC= 1.00D-01 BMatC= 2.39D-08 BMatP= 1.49D-07
 IDIUse=1 WtCom= 1.00D+00 WtEn= 0.00D+00
 Coeff-Com:  0.162D-04-0.303D-04 0.613D-05-0.125D-05 0.108D-04-0.546D-04
 Coeff-Com: -0.218D-03 0.180D-04 0.170D-02-0.161D-03-0.345D-02 0.189D-01
 Coeff-Com: -0.363D-02 0.201D-01-0.261D+00-0.517D-01 0.128D+01
 Coeff:      0.162D-04-0.303D-04 0.613D-05-0.125D-05 0.108D-04-0.546D-04
 Coeff:     -0.218D-03 0.180D-04 0.170D-02-0.161D-03-0.345D-02 0.189D-01
 Coeff:     -0.363D-02 0.201D-01-0.261D+00-0.517D-01 0.128D+01
 Gap=     0.152 Goal=   None    Shift=    0.000
 RMSDP=1.03D-05 MaxDP=3.33D-04 DE=-1.82D-06 OVMax= 8.63D-04

 Cycle  18  Pass 1  IDiag  1:
 RMSU=  4.13D-06    CP:  4.27D-01  1.38D+00  1.56D-01  5.45D-01  7.95D-01
                    CP:  4.51D-01  9.98D-01  8.97D-01  1.41D+00  1.57D+00
                    CP:  2.08D+00  3.00D+00  3.00D+00  2.67D+00  2.55D+00
                    CP:  2.48D+00  1.31D+00
 E= -2058.46623700736     Delta-E=       -0.000000359868 Rises=F Damp=F
 DIIS: error= 4.41D-06 at cycle  18 NSaved=  18.
 NSaved=18 IEnMin=18 EnMin= -2058.46623700736     IErMin=18 ErrMin= 4.41D-06
 ErrMax= 4.41D-06  0.00D+00 EMaxC= 1.00D-01 BMatC= 6.58D-09 BMatP= 2.39D-08
 IDIUse=1 WtCom= 1.00D+00 WtEn= 0.00D+00
 Coeff-Com: -0.112D-04 0.884D-05-0.924D-06 0.778D-06 0.208D-05 0.153D-05
 Coeff-Com: -0.110D-03 0.115D-04 0.623D-03-0.674D-04-0.862D-02-0.577D-02
 Coeff-Com:  0.273D-01 0.534D-01-0.101D+00-0.167D+00 0.192D+00 0.101D+01
 Coeff:     -0.112D-04 0.884D-05-0.924D-06 0.778D-06 0.208D-05 0.153D-05
 Coeff:     -0.110D-03 0.115D-04 0.623D-03-0.674D-04-0.862D-02-0.577D-02
 Coeff:      0.273D-01 0.534D-01-0.101D+00-0.167D+00 0.192D+00 0.101D+01
 Gap=     0.152 Goal=   None    Shift=    0.000
 RMSDP=2.80D-06 MaxDP=9.05D-05 DE=-3.60D-07 OVMax= 2.33D-04

 Cycle  19  Pass 1  IDiag  1:
 RMSU=  6.85D-07    CP:  4.27D-01  1.38D+00  1.56D-01  5.45D-01  7.95D-01
                    CP:  4.51D-01  9.98D-01  8.97D-01  1.41D+00  1.57D+00
                    CP:  2.08D+00  3.00D+00  3.00D+00  2.71D+00  2.63D+00
                    CP:  2.59D+00  1.45D+00  1.38D+00
 E= -2058.46623705625     Delta-E=       -0.000000048889 Rises=F Damp=F
 DIIS: error= 1.95D-06 at cycle  19 NSaved=  19.
 NSaved=19 IEnMin=19 EnMin= -2058.46623705625     IErMin=19 ErrMin= 1.95D-06
 ErrMax= 1.95D-06  0.00D+00 EMaxC= 1.00D-01 BMatC= 1.63D-09 BMatP= 6.58D-09
 IDIUse=1 WtCom= 1.00D+00 WtEn= 0.00D+00
 Coeff-Com: -0.646D-05 0.642D-05-0.307D-05 0.756D-06-0.132D-05 0.155D-04
 Coeff-Com: -0.129D-04-0.223D-04-0.162D-03 0.208D-03-0.272D-02-0.660D-02
 Coeff-Com:  0.121D-01 0.156D-01 0.212D-01-0.584D-01-0.233D+00 0.450D+00
 Coeff-Com:  0.802D+00
 Coeff:     -0.646D-05 0.642D-05-0.307D-05 0.756D-06-0.132D-05 0.155D-04
 Coeff:     -0.129D-04-0.223D-04-0.162D-03 0.208D-03-0.272D-02-0.660D-02
 Coeff:      0.121D-01 0.156D-01 0.212D-01-0.584D-01-0.233D+00 0.450D+00
 Coeff:      0.802D+00
 Gap=     0.152 Goal=   None    Shift=    0.000
 RMSDP=1.18D-06 MaxDP=3.88D-05 DE=-4.89D-08 OVMax= 9.87D-05

 Cycle  20  Pass 1  IDiag  1:
 RMSU=  4.10D-07    CP:  4.27D-01  1.38D+00  1.56D-01  5.45D-01  7.95D-01
                    CP:  4.51D-01  9.98D-01  8.97D-01  1.41D+00  1.57D+00
                    CP:  2.09D+00  3.00D+00  3.00D+00  2.73D+00  2.66D+00
                    CP:  2.64D+00  1.51D+00  1.55D+00  1.31D+00
 E= -2058.46623706606     Delta-E=       -0.000000009818 Rises=F Damp=F
 DIIS: error= 1.47D-06 at cycle  20 NSaved=  20.
 NSaved=20 IEnMin=20 EnMin= -2058.46623706606     IErMin=20 ErrMin= 1.47D-06
 ErrMax= 1.47D-06  0.00D+00 EMaxC= 1.00D-01 BMatC= 4.82D-10 BMatP= 1.63D-09
 IDIUse=1 WtCom= 1.00D+00 WtEn= 0.00D+00
 Coeff-Com:  0.200D-06-0.791D-06-0.117D-05 0.336D-06-0.139D-05 0.745D-05
 Coeff-Com:  0.155D-04-0.266D-04-0.235D-03 0.890D-04 0.102D-02-0.876D-03
 Coeff-Com: -0.165D-02-0.646D-02 0.321D-01 0.124D-01-0.155D+00 0.531D-02
 Coeff-Com:  0.369D+00 0.744D+00
 Coeff:      0.200D-06-0.791D-06-0.117D-05 0.336D-06-0.139D-05 0.745D-05
 Coeff:      0.155D-04-0.266D-04-0.235D-03 0.890D-04 0.102D-02-0.876D-03
 Coeff:     -0.165D-02-0.646D-02 0.321D-01 0.124D-01-0.155D+00 0.531D-02
 Coeff:      0.369D+00 0.744D+00
 Gap=     0.152 Goal=   None    Shift=    0.000
 RMSDP=4.48D-07 MaxDP=1.41D-05 DE=-9.82D-09 OVMax= 4.50D-05

 Cycle  21  Pass 1  IDiag  1:
 Restarting incremental Fock formation.
 E= -2058.46623706913     Delta-E=       -0.000000003062 Rises=F Damp=F
 DIIS: error= 7.49D-07 at cycle  21 NSaved=  20.
 NSaved=20 IEnMin=20 EnMin= -2058.46623706913     IErMin=20 ErrMin= 7.49D-07
 ErrMax= 7.49D-07  0.00D+00 EMaxC= 1.00D-01 BMatC= 7.48D-11 BMatP= 4.82D-10
 IDIUse=1 WtCom= 1.00D+00 WtEn= 0.00D+00
 Coeff-Com: -0.157D-05 0.244D-05 0.760D-06-0.288D-06-0.129D-05 0.135D-04
 Coeff-Com: -0.400D-05-0.577D-04-0.594D-04 0.120D-02 0.181D-02-0.459D-02
 Coeff-Com: -0.648D-02 0.718D-02 0.208D-01-0.153D-02-0.104D+00-0.109D+00
 Coeff-Com:  0.213D+00 0.983D+00
 Coeff:     -0.157D-05 0.244D-05 0.760D-06-0.288D-06-0.129D-05 0.135D-04
 Coeff:     -0.400D-05-0.577D-04-0.594D-04 0.120D-02 0.181D-02-0.459D-02
 Coeff:     -0.648D-02 0.718D-02 0.208D-01-0.153D-02-0.104D+00-0.109D+00
 Coeff:      0.213D+00 0.983D+00
 Gap=     0.152 Goal=   None    Shift=    0.000
 RMSDP=2.54D-07 MaxDP=8.82D-06 DE=-3.06D-09 OVMax= 3.17D-05

 Cycle  22  Pass 1  IDiag  1:
 RMSU=  2.54D-07    CP:  1.00D+00
 E= -2058.46623706955     Delta-E=       -0.000000000427 Rises=F Damp=F
 DIIS: error= 1.54D-07 at cycle  22 NSaved=  20.
 NSaved=20 IEnMin=20 EnMin= -2058.46623706955     IErMin=20 ErrMin= 1.54D-07
 ErrMax= 1.54D-07  0.00D+00 EMaxC= 1.00D-01 BMatC= 1.05D-11 BMatP= 7.48D-11
 IDIUse=1 WtCom= 1.00D+00 WtEn= 0.00D+00
 Coeff-Com:  0.215D-06 0.143D-07 0.383D-06-0.853D-06-0.840D-06 0.135D-05
 Coeff-Com:  0.218D-04 0.135D-04-0.824D-04 0.106D-03-0.191D-03 0.585D-03
 Coeff-Com: -0.249D-02 0.416D-03 0.153D-01-0.149D-01-0.522D-01-0.515D-01
 Coeff-Com:  0.142D+00 0.963D+00
 Coeff:      0.215D-06 0.143D-07 0.383D-06-0.853D-06-0.840D-06 0.135D-05
 Coeff:      0.218D-04 0.135D-04-0.824D-04 0.106D-03-0.191D-03 0.585D-03
 Coeff:     -0.249D-02 0.416D-03 0.153D-01-0.149D-01-0.522D-01-0.515D-01
 Coeff:      0.142D+00 0.963D+00
 Gap=     0.152 Goal=   None    Shift=    0.000
 RMSDP=6.88D-08 MaxDP=4.69D-06 DE=-4.27D-10 OVMax= 8.01D-06

 Cycle  23  Pass 1  IDiag  1:
 RMSU=  5.15D-08    CP:  1.00D+00  1.18D+00
 E= -2058.46623706966     Delta-E=       -0.000000000108 Rises=F Damp=F
 DIIS: error= 7.11D-08 at cycle  23 NSaved=  20.
 NSaved=20 IEnMin=20 EnMin= -2058.46623706966     IErMin=20 ErrMin= 7.11D-08
 ErrMax= 7.11D-08  0.00D+00 EMaxC= 1.00D-01 BMatC= 2.10D-12 BMatP= 1.05D-11
 IDIUse=1 WtCom= 1.00D+00 WtEn= 0.00D+00
 Coeff-Com: -0.309D-07 0.560D-07-0.305D-07-0.293D-05-0.329D-05 0.143D-04
 Coeff-Com:  0.486D-04-0.160D-03-0.338D-03 0.474D-03 0.121D-02-0.102D-02
 Coeff-Com: -0.347D-02 0.341D-02 0.142D-01 0.607D-02-0.522D-01-0.147D+00
 Coeff-Com:  0.208D+00 0.971D+00
 Coeff:     -0.309D-07 0.560D-07-0.305D-07-0.293D-05-0.329D-05 0.143D-04
 Coeff:      0.486D-04-0.160D-03-0.338D-03 0.474D-03 0.121D-02-0.102D-02
 Coeff:     -0.347D-02 0.341D-02 0.142D-01 0.607D-02-0.522D-01-0.147D+00
 Coeff:      0.208D+00 0.971D+00
 Gap=     0.152 Goal=   None    Shift=    0.000
 RMSDP=3.91D-08 MaxDP=3.42D-06 DE=-1.08D-10 OVMax= 3.87D-06

 Cycle  24  Pass 1  IDiag  1:
 RMSU=  1.30D-08    CP:  1.00D+00  1.24D+00  1.65D+00
 E= -2058.46623706962     Delta-E=        0.000000000038 Rises=F Damp=F
 DIIS: error= 4.45D-08 at cycle  24 NSaved=  20.
 NSaved=20 IEnMin=19 EnMin= -2058.46623706966     IErMin=20 ErrMin= 4.45D-08
 ErrMax= 4.45D-08  0.00D+00 EMaxC= 1.00D-01 BMatC= 1.97D-13 BMatP= 2.10D-12
 IDIUse=1 WtCom= 1.00D+00 WtEn= 0.00D+00
 Coeff-Com: -0.520D-07 0.227D-06 0.514D-06-0.783D-06-0.271D-05-0.147D-06
 Coeff-Com:  0.423D-04-0.130D-04-0.858D-04-0.174D-03 0.679D-03 0.220D-03
 Coeff-Com: -0.273D-02 0.236D-02 0.447D-02 0.680D-02-0.111D-02-0.142D+00
 Coeff-Com: -0.508D-01 0.118D+01
 Coeff:     -0.520D-07 0.227D-06 0.514D-06-0.783D-06-0.271D-05-0.147D-06
 Coeff:      0.423D-04-0.130D-04-0.858D-04-0.174D-03 0.679D-03 0.220D-03
 Coeff:     -0.273D-02 0.236D-02 0.447D-02 0.680D-02-0.111D-02-0.142D+00
 Coeff:     -0.508D-01 0.118D+01
 Gap=     0.152 Goal=   None    Shift=    0.000
 RMSDP=1.90D-08 MaxDP=1.61D-06 DE= 3.82D-11 OVMax= 1.79D-06

 Cycle  25  Pass 1  IDiag  1:
 RMSU=  8.40D-09    CP:  1.00D+00  1.25D+00  1.93D+00  1.65D+00
 E= -2058.46623706966     Delta-E=       -0.000000000035 Rises=F Damp=F
 DIIS: error= 1.97D-08 at cycle  25 NSaved=  20.
 NSaved=20 IEnMin=18 EnMin= -2058.46623706966     IErMin=20 ErrMin= 1.97D-08
 ErrMax= 1.97D-08  0.00D+00 EMaxC= 1.00D-01 BMatC= 4.81D-14 BMatP= 1.97D-13
 IDIUse=1 WtCom= 1.00D+00 WtEn= 0.00D+00
 Coeff-Com:  0.125D-07 0.256D-06 0.765D-06-0.268D-05-0.720D-05 0.156D-04
 Coeff-Com:  0.511D-04-0.403D-04-0.148D-03 0.124D-03 0.388D-03-0.824D-03
 Coeff-Com: -0.748D-03-0.699D-03 0.414D-02 0.170D-01-0.214D-01-0.149D+00
 Coeff-Com:  0.846D-01 0.107D+01
 Coeff:      0.125D-07 0.256D-06 0.765D-06-0.268D-05-0.720D-05 0.156D-04
 Coeff:      0.511D-04-0.403D-04-0.148D-03 0.124D-03 0.388D-03-0.824D-03
 Coeff:     -0.748D-03-0.699D-03 0.414D-02 0.170D-01-0.214D-01-0.149D+00
 Coeff:      0.846D-01 0.107D+01
 Gap=     0.152 Goal=   None    Shift=    0.000
 RMSDP=6.95D-09 MaxDP=4.18D-07 DE=-3.55D-11 OVMax= 8.05D-07

 SCF Done:  E(RwB97XD) =  -2058.46623707     A.U. after   25 cycles
            NFock= 25  Conv=0.69D-08     -V/T= 3.6226
 KE= 7.848862412222D+02 PE=-1.357190244108D+04 EE= 6.161885224957D+03
 Leave Link  502 at Wed Feb 26 02:34:30 2025, MaxMem=  2097152000 cpu:            3442.2 elap:             868.3
 (Enter /nvme/h/buildsets/eb_nepheli/software/Gaussian/16.C.01-AVX2/g16/l508.exe)
 QCSCF skips out because SCF is already converged.
 Leave Link  508 at Wed Feb 26 02:34:30 2025, MaxMem=  2097152000 cpu:               0.0 elap:               0.0
 (Enter /nvme/h/buildsets/eb_nepheli/software/Gaussian/16.C.01-AVX2/g16/l601.exe)
 Copying SCF densities to generalized density rwf, IOpCl= 0 IROHF=0.

 **********************************************************************

            Population analysis using the SCF Density.

 **********************************************************************

 Orbital symmetries:
       Occupied  (A) (A) (A) (A) (A) (A) (A) (A) (A) (A) (A) (A)
                 (A) (A) (A) (A) (A) (A) (A) (A) (A) (A) (A) (A)
                 (A) (A) (A) (A) (A) (A) (A) (A) (A) (A) (A) (A)
                 (A) (A) (A) (A) (A) (A) (A) (A) (A) (A) (A) (A)
                 (A) (A) (A) (A) (A) (A) (A) (A) (A) (A) (A) (A)
                 (A) (A) (A) (A) (A) (A) (A) (A) (A) (A) (A) (A)
                 (A) (A) (A) (A) (A) (A) (A) (A) (A) (A) (A) (A)
                 (A) (A) (A) (A) (A) (A) (A) (A) (A) (A) (A) (A)
                 (A) (A) (A) (A) (A) (A) (A) (A) (A) (A) (A) (A)
                 (A) (A) (A) (A) (A) (A) (A) (A) (A) (A) (A) (A)
                 (A) (A) (A) (A) (A) (A) (A) (A) (A) (A) (A) (A)
                 (A)
       Virtual   (A) (A) (A) (A) (A) (A) (A) (A) (A) (A) (A) (A)
                 (A) (A) (A) (A) (A) (A) (A) (A) (A) (A) (A) (A)
                 (A) (A) (A) (A) (A) (A) (A) (A) (A) (A) (A) (A)
                 (A) (A) (A) (A) (A) (A) (A) (A) (A) (A) (A) (A)
                 (A) (A) (A) (A) (A) (A) (A) (A) (A) (A) (A) (A)
                 (A) (A) (A) (A) (A) (A) (A) (A) (A) (A) (A) (A)
                 (A) (A) (A) (A) (A) (A) (A) (A) (A) (A) (A) (A)
                 (A) (A) (A) (A) (A) (A) (A) (A) (A) (A) (A) (A)
                 (A) (A) (A) (A) (A) (A) (A) (A) (A) (A) (A) (A)
                 (A) (A) (A) (A) (A) (A) (A) (A) (A) (A) (A) (A)
                 (A) (A) (A) (A) (A) (A) (A) (A) (A) (A) (A) (A)
                 (A) (A) (A) (A) (A) (A) (A) (A) (A) (A) (A) (A)
                 (A) (A) (A) (A) (A) (A) (A) (A) (A) (A) (A) (A)
                 (A) (A) (A) (A) (A) (A) (A) (A) (A) (A) (A) (A)
                 (A) (A) (A) (A) (A) (A) (A) (A) (A) (A) (A) (A)
                 (A) (A) (A) (A) (A) (A) (A) (A) (A) (A) (A) (A)
                 (A) (A) (A) (A) (A) (A) (A) (A) (A) (A) (A) (A)
                 (A) (A) (A) (A) (A) (A) (A) (A) (A) (A) (A) (A)
                 (A) (A) (A) (A) (A) (A) (A) (A) (A) (A) (A) (A)
                 (A) (A) (A) (A) (A) (A) (A) (A) (A) (A) (A) (A)
                 (A) (A) (A) (A) (A) (A) (A) (A) (A) (A) (A) (A)
                 (A) (A) (A) (A) (A) (A) (A) (A) (A) (A) (A) (A)
                 (A) (A) (A) (A) (A) (A) (A) (A) (A) (A) (A) (A)
                 (A) (A) (A) (A) (A) (A) (A) (A) (A) (A) (A) (A)
                 (A) (A) (A) (A) (A) (A) (A) (A) (A) (A) (A) (A)
                 (A)
 The electronic state is 1-A.
 Alpha  occ. eigenvalues --   -3.86715  -3.84693  -3.84689  -3.84686  -3.84676
 Alpha  occ. eigenvalues --   -3.84673  -3.84668  -3.84420  -3.84374  -3.84371
 Alpha  occ. eigenvalues --   -3.84367  -3.84038  -3.84032  -3.84030  -2.44861
 Alpha  occ. eigenvalues --   -2.44859  -2.44857  -2.43000  -2.42984  -2.42982
 Alpha  occ. eigenvalues --   -2.42969  -2.42963  -2.42961  -2.42884  -2.42881
 Alpha  occ. eigenvalues --   -2.42881  -2.42834  -2.42832  -2.42824  -2.42818
 Alpha  occ. eigenvalues --   -2.42752  -2.42750  -2.42732  -2.42665  -2.42663
 Alpha  occ. eigenvalues --   -2.42612  -2.42546  -2.42545  -2.42541  -2.42515
 Alpha  occ. eigenvalues --   -2.42513  -2.42468  -2.42465  -2.42464  -2.42383
 Alpha  occ. eigenvalues --   -2.42344  -2.42341  -2.42273  -2.42265  -2.42262
 Alpha  occ. eigenvalues --   -2.42173  -2.42168  -2.42141  -2.42109  -2.42045
 Alpha  occ. eigenvalues --   -2.42041  -0.48274  -0.48268  -0.48047  -0.47403
 Alpha  occ. eigenvalues --   -0.47400  -0.46949  -0.46251  -0.46027  -0.45649
 Alpha  occ. eigenvalues --   -0.45647  -0.44983  -0.44853  -0.44784  -0.44781
 Alpha  occ. eigenvalues --   -0.44373  -0.44370  -0.44336  -0.44335  -0.44201
 Alpha  occ. eigenvalues --   -0.43940  -0.43936  -0.43771  -0.43569  -0.43566
 Alpha  occ. eigenvalues --   -0.43323  -0.43106  -0.43103  -0.43064  -0.42822
 Alpha  occ. eigenvalues --   -0.42819  -0.42813  -0.42265  -0.42265  -0.42024
 Alpha  occ. eigenvalues --   -0.42019  -0.41959  -0.41957  -0.41919  -0.41372
 Alpha  occ. eigenvalues --   -0.41330  -0.41327  -0.41130  -0.41127  -0.40799
 Alpha  occ. eigenvalues --   -0.40726  -0.40595  -0.40593  -0.40176  -0.40030
 Alpha  occ. eigenvalues --   -0.40029  -0.40028  -0.39660  -0.39659  -0.39624
 Alpha  occ. eigenvalues --   -0.39460  -0.39351  -0.39349  -0.39324  -0.39178
 Alpha  occ. eigenvalues --   -0.39175  -0.39053  -0.39051  -0.39001  -0.38935
 Alpha  occ. eigenvalues --   -0.38931  -0.38817  -0.38689  -0.38687  -0.38093
 Alpha  occ. eigenvalues --   -0.38092  -0.37307  -0.32537  -0.31201  -0.31197
 Alpha  occ. eigenvalues --   -0.23991  -0.20964  -0.20959
 Alpha virt. eigenvalues --   -0.05805  -0.05801  -0.05506  -0.03311  -0.00570
 Alpha virt. eigenvalues --   -0.00565  -0.00515   0.00928   0.01692   0.01696
 Alpha virt. eigenvalues --    0.03189   0.03190   0.03956   0.04304   0.06840
 Alpha virt. eigenvalues --    0.06843   0.08601   0.09044   0.09049   0.10114
 Alpha virt. eigenvalues --    0.10115   0.10686   0.11134   0.11591   0.11593
 Alpha virt. eigenvalues --    0.12145   0.12147   0.12965   0.14125   0.14127
 Alpha virt. eigenvalues --    0.14894   0.14894   0.15132   0.15373   0.15856
 Alpha virt. eigenvalues --    0.15859   0.17163   0.17218   0.17247   0.17249
 Alpha virt. eigenvalues --    0.17957   0.17960   0.17968   0.19447   0.19449
 Alpha virt. eigenvalues --    0.22348   0.22350   0.22817   0.23174   0.23831
 Alpha virt. eigenvalues --    0.25351   0.27516   0.27892   0.27895   0.28032
 Alpha virt. eigenvalues --    0.28036   0.28744   0.28747   0.29225   0.30359
 Alpha virt. eigenvalues --    0.30761   0.30764   0.31570   0.32758   0.32760
 Alpha virt. eigenvalues --    0.33793   0.34191   0.34349   0.34356   0.35113
 Alpha virt. eigenvalues --    0.35721   0.35745   0.35755   0.37186   0.37190
 Alpha virt. eigenvalues --    0.38778   0.39662   0.39667   0.40823   0.41032
 Alpha virt. eigenvalues --    0.41034   0.41563   0.41570   0.43452   0.43459
 Alpha virt. eigenvalues --    0.43549   0.46655   0.46796   0.46798   0.49271
 Alpha virt. eigenvalues --    0.49840   0.49846   0.51567   0.53179   0.53184
 Alpha virt. eigenvalues --    0.53945   0.54682   0.54691   0.55739   0.55741
 Alpha virt. eigenvalues --    0.56627   0.57260   0.59733   0.59736   0.60194
 Alpha virt. eigenvalues --    0.60967   0.60972   0.63806   0.63812   0.64084
 Alpha virt. eigenvalues --    0.64924   0.64931   0.65005   0.66055   0.66060
 Alpha virt. eigenvalues --    0.66075   0.70166   0.70917   0.71259   0.71267
 Alpha virt. eigenvalues --    0.72399   0.72408   0.73558   0.73562   0.73800
 Alpha virt. eigenvalues --    0.74373   0.74930   0.74935   0.75683   0.75694
 Alpha virt. eigenvalues --    0.76959   0.77238   0.77251   0.77996   0.78010
 Alpha virt. eigenvalues --    0.79198   0.80893   0.80915   0.82460   0.84295
 Alpha virt. eigenvalues --    0.84304   0.85606   0.85610   0.86420   0.86546
 Alpha virt. eigenvalues --    0.88635   0.88647   0.89588   0.90444   0.90463
 Alpha virt. eigenvalues --    0.92456   0.92473   0.93823   0.94519   0.94540
 Alpha virt. eigenvalues --    0.97275   0.98370   0.98598   0.98609   0.99005
 Alpha virt. eigenvalues --    0.99573   0.99582   1.02093   1.02105   1.03192
 Alpha virt. eigenvalues --    1.03454   1.03812   1.03823   1.04440   1.05612
 Alpha virt. eigenvalues --    1.05628   1.10597   1.11573   1.12002   1.12037
 Alpha virt. eigenvalues --    2.17462   2.21728   2.29681   2.29700   2.31540
 Alpha virt. eigenvalues --    2.35290   2.35296   2.39989   2.44967   2.44975
 Alpha virt. eigenvalues --    2.45507   2.47500   2.47508   2.53915   2.66106
 Alpha virt. eigenvalues --    2.66166   2.66176   2.66177   2.67101   2.67103
 Alpha virt. eigenvalues --    2.67307   2.67443   2.67501   2.67546   2.67547
 Alpha virt. eigenvalues --    2.67553   2.67657   2.67659   2.67672   2.67676
 Alpha virt. eigenvalues --    2.67678   2.67702   2.67703   2.67747   2.67774
 Alpha virt. eigenvalues --    2.67783   2.67784   2.67822   2.67894   2.67896
 Alpha virt. eigenvalues --    2.67915   2.67960   2.68007   2.68008   2.68033
 Alpha virt. eigenvalues --    2.68034   2.68038   2.68090   2.68090   2.68109
 Alpha virt. eigenvalues --    2.68109   2.68126   2.68152   2.68154   2.68203
 Alpha virt. eigenvalues --    2.68228   2.68261   2.68263   2.68334   2.68335
 Alpha virt. eigenvalues --    2.68375   2.68387   2.68389   2.68443   2.68466
 Alpha virt. eigenvalues --    2.68468   2.68476   2.68591   2.68594   2.68629
 Alpha virt. eigenvalues --    2.68658   2.68666   2.68667   2.68880   2.68993
 Alpha virt. eigenvalues --    2.68996   2.69010   2.69126   2.69128   2.69185
 Alpha virt. eigenvalues --    2.69257   2.69259   2.69412   2.69414   2.69439
 Alpha virt. eigenvalues --    2.69551   2.69553   2.69754   2.70058   2.70061
 Alpha virt. eigenvalues --    2.70161   2.70192   2.70197   2.70197   2.70299
 Alpha virt. eigenvalues --    2.70300   2.70655   2.70659   2.70952   2.71277
 Alpha virt. eigenvalues --    2.71502   2.71503   2.71728   2.72316   2.72318
 Alpha virt. eigenvalues --    2.73106   2.73109   2.74068   2.75122   2.76309
 Alpha virt. eigenvalues --    2.76321   2.85378  54.34031  54.36021  54.41866
 Alpha virt. eigenvalues --   54.41877  54.43964  54.46890  54.46896  54.50807
 Alpha virt. eigenvalues --   54.53385  54.53388  54.56325  54.57279  54.57291
 Alpha virt. eigenvalues --   54.70065
          Condensed to atoms (all electrons):
               1          2          3          4          5          6
     1  Ag  18.871780   0.017648  -0.054645   0.039290  -0.003060  -0.036030
     2  Ag   0.017648  18.871939  -0.054538   0.038495  -0.036009   0.098293
     3  Ag  -0.054645  -0.054538  18.489273   0.139884  -0.023691   0.114075
     4  Ag   0.039290   0.038495   0.139884  21.273096   0.064218   0.063220
     5  Ag  -0.003060  -0.036009  -0.023691   0.064218  18.451277  -0.046621
     6  Ag  -0.036030   0.098293   0.114075   0.063220  -0.046621  18.451317
     7  Ag  -0.003000   0.098046  -0.010834   0.063393   0.040429   0.069859
     8  Ag   0.098443  -0.003028  -0.010783   0.062763  -0.046575  -0.046831
     9  Ag   0.012160  -0.054768   0.028675   0.139547   0.114221  -0.011042
    10  Ag   0.098304  -0.036101   0.114497   0.063383  -0.013448   0.040256
    11  Ag  -0.035743  -0.003189  -0.023774   0.063450   0.070051  -0.013715
    12  Ag   0.088911   0.089250  -0.003091  -0.037345  -0.003916  -0.003814
    13  Ag   0.017031   0.017385   0.012080   0.037275   0.098396  -0.003053
    14  Ag  -0.054550   0.012116   0.028824   0.139369  -0.010765  -0.023773
               7          8          9         10         11         12
     1  Ag  -0.003000   0.098443   0.012160   0.098304  -0.035743   0.088911
     2  Ag   0.098046  -0.003028  -0.054768  -0.036101  -0.003189   0.089250
     3  Ag  -0.010834  -0.010783   0.028675   0.114497  -0.023774  -0.003091
     4  Ag   0.063393   0.062763   0.139547   0.063383   0.063450  -0.037345
     5  Ag   0.040429  -0.046575   0.114221  -0.013448   0.070051  -0.003916
     6  Ag   0.069859  -0.046831  -0.011042   0.040256  -0.013715  -0.003814
     7  Ag  18.451347  -0.013668   0.114286  -0.046656  -0.046619  -0.003867
     8  Ag  -0.013668  18.451886  -0.023834   0.069563   0.040390  -0.003832
     9  Ag   0.114286  -0.023834  18.490142  -0.023729  -0.010925  -0.003096
    10  Ag  -0.046656   0.069563  -0.023729  18.451116  -0.046645  -0.003907
    11  Ag  -0.046619   0.040390  -0.010925  -0.046645  18.451011  -0.003850
    12  Ag  -0.003867  -0.003832  -0.003096  -0.003907  -0.003850  18.333123
    13  Ag  -0.036058  -0.036547  -0.054819  -0.003128   0.097816   0.089306
    14  Ag  -0.023799   0.113995   0.028666  -0.011018   0.114131  -0.003085
              13         14
     1  Ag   0.017031  -0.054550
     2  Ag   0.017385   0.012116
     3  Ag   0.012080   0.028824
     4  Ag   0.037275   0.139369
     5  Ag   0.098396  -0.010765
     6  Ag  -0.003053  -0.023773
     7  Ag  -0.036058  -0.023799
     8  Ag  -0.036547   0.113995
     9  Ag  -0.054819   0.028666
    10  Ag  -0.003128  -0.011018
    11  Ag   0.097816   0.114131
    12  Ag   0.089306  -0.003085
    13  Ag  18.873665  -0.054818
    14  Ag  -0.054818  18.489511
 Mulliken charges:
               1
     1  Ag  -0.056538
     2  Ag  -0.055538
     3  Ag   0.254049
     4  Ag  -3.150039
     5  Ag   0.345492
     6  Ag   0.347860
     7  Ag   0.347140
     8  Ag   0.348059
     9  Ag   0.254515
    10  Ag   0.347513
    11  Ag   0.347611
    12  Ag   0.469214
    13  Ag  -0.054532
    14  Ag   0.255195
 Sum of Mulliken charges =  -0.00000
 Mulliken charges with hydrogens summed into heavy atoms:
               1
     1  Ag  -0.056538
     2  Ag  -0.055538
     3  Ag   0.254049
     4  Ag  -3.150039
     5  Ag   0.345492
     6  Ag   0.347860
     7  Ag   0.347140
     8  Ag   0.348059
     9  Ag   0.254515
    10  Ag   0.347513
    11  Ag   0.347611
    12  Ag   0.469214
    13  Ag  -0.054532
    14  Ag   0.255195
 Electronic spatial extent (au):  <R**2>=           8802.2597
 Charge=             -0.0000 electrons
 Dipole moment (field-independent basis, Debye):
    X=              0.0144    Y=              0.0008    Z=             -0.0022  Tot=              0.0146
 Quadrupole moment (field-independent basis, Debye-Ang):
   XX=           -264.9517   YY=           -274.4694   ZZ=           -274.4258
   XY=             -0.0057   XZ=              0.0153   YZ=              0.0089
 Traceless Quadrupole moment (field-independent basis, Debye-Ang):
   XX=              6.3306   YY=             -3.1871   ZZ=             -3.1435
   XY=             -0.0057   XZ=              0.0153   YZ=              0.0089
 Octapole moment (field-independent basis, Debye-Ang**2):
  XXX=             30.8208  YYY=             -2.1126  ZZZ=             -3.9367  XYY=             -5.1673
  XXY=              0.0026  XXZ=             -0.0436  XZZ=             -5.2071  YZZ=              2.1303
  YYZ=              3.9133  XYZ=             -0.0054
 Hexadecapole moment (field-independent basis, Debye-Ang**3):
 XXXX=          -6120.3897 YYYY=          -4384.2040 ZZZZ=          -4379.3881 XXXY=             -0.0535
 XXXZ=             -0.0109 YYYX=            -22.1402 YYYZ=              0.0326 ZZZX=            -40.3208
 ZZZY=              0.1725 XXYY=          -1838.3249 XXZZ=          -1837.3651 YYZZ=          -1460.6366
 XXYZ=              0.0031 YYXZ=             40.6233 ZZXY=             22.0583
 N-N= 4.566664737829D+03 E-N=-1.357190244305D+04  KE= 7.848862412222D+02
 No NMR shielding tensors so no spin-rotation constants.
 Leave Link  601 at Wed Feb 26 02:34:31 2025, MaxMem=  2097152000 cpu:               0.8 elap:               0.2
 (Enter /nvme/h/buildsets/eb_nepheli/software/Gaussian/16.C.01-AVX2/g16/l701.exe)
 ... and contract with generalized density number  0.
 Compute integral first derivatives.
 R6Disp: Adding Grimme-D2 dispersion energy 1st derivatives to the gradient.
   1 Symmetry operations used in ECPInt.
 ECPInt:  NShTT=   11935 NPrTT=   35721 LenC2=   11472 LenP2D=   28359.
 LDataN:  DoStor=T MaxTD1= 8 Len=  415
 Leave Link  701 at Wed Feb 26 02:34:45 2025, MaxMem=  2097152000 cpu:              54.4 elap:              13.7
 (Enter /nvme/h/buildsets/eb_nepheli/software/Gaussian/16.C.01-AVX2/g16/l702.exe)
 L702 exits ... SP integral derivatives will be done elsewhere.
 Leave Link  702 at Wed Feb 26 02:34:45 2025, MaxMem=  2097152000 cpu:               0.0 elap:               0.0
 (Enter /nvme/h/buildsets/eb_nepheli/software/Gaussian/16.C.01-AVX2/g16/l703.exe)
 Integral derivatives from FoFJK, PRISM(SPDF).
 Compute integral first derivatives, UseDBF=F ICtDFT=           0.
 Calling FoFJK, ICntrl=      2127 FMM=F ISym2X=0 I1Cent= 0 IOpClX= 0 NMat=1 NMatS=1 NMatT=0.
 FoFJK:  IHMeth= 1 ICntrl=    2127 DoSepK=T KAlg= 0 I1Cent=           0 FoldK=F
 IRaf=         1 NMat=       1 IRICut=       1 DoRegI=T DoRafI=F ISym2E= 0 IDoP0=0 IntGTp=1.
 FoFCou: FMM=F IPFlag=           0 FMFlag=      100000 FMFlg1=         800
         NFxFlg=           0 DoJE=F BraDBF=F KetDBF=F FulRan=T
         wScrn=  0.000000 ICntrl=      2527 IOpCl=  0 I1Cent=           0 NGrid=           0
         NMat0=    1 NMatS0=      1 NMatT0=    0 NMatD0=    1 NMtDS0=    0 NMtDT0=    0
 Symmetry not used in FoFCou.
 Defaulting to unpruned grid for atomic number  47.
 Defaulting to unpruned grid for atomic number  47.
 Defaulting to unpruned grid for atomic number  47.
 Defaulting to unpruned grid for atomic number  47.
 Leave Link  703 at Wed Feb 26 02:38:00 2025, MaxMem=  2097152000 cpu:             774.5 elap:             195.3
 (Enter /nvme/h/buildsets/eb_nepheli/software/Gaussian/16.C.01-AVX2/g16/l716.exe)
 Dipole        = 5.67055914D-03 3.33934008D-04-8.66833852D-04
 ***** Axes restored to original set *****
 -------------------------------------------------------------------
 Center     Atomic                   Forces (Hartrees/Bohr)
 Number     Number              X              Y              Z
 -------------------------------------------------------------------
      1       47          -0.000047768   -0.000055397    0.000001427
      2       47          -0.000093748    0.000029565    0.000020824
      3       47           0.000037633    0.000003554    0.000016077
      4       47           0.000069600   -0.000131443   -0.000041919
      5       47          -0.000048649   -0.000004881    0.000021905
      6       47           0.000010415    0.000091038   -0.000002921
      7       47           0.000023460   -0.000018856    0.000040561
      8       47           0.000086361   -0.000115005   -0.000058417
      9       47          -0.000001420    0.000069657   -0.000029529
     10       47          -0.000000528    0.000040023    0.000039373
     11       47           0.000031879    0.000070867   -0.000014277
     12       47          -0.000038446    0.000027517    0.000010734
     13       47           0.000062147   -0.000035874   -0.000001780
     14       47          -0.000090936    0.000029236   -0.000002058
 -------------------------------------------------------------------
 Cartesian Forces:  Max     0.000131443 RMS     0.000051337
 Z-matrix is all fixed cartesians, so copy forces.
 Leave Link  716 at Wed Feb 26 02:38:01 2025, MaxMem=  2097152000 cpu:               0.1 elap:               0.0
 (Enter /nvme/h/buildsets/eb_nepheli/software/Gaussian/16.C.01-AVX2/g16/l103.exe)

 GradGradGradGradGradGradGradGradGradGradGradGradGradGradGradGradGradGrad
 Berny optimization.
 Search for a local minimum.
 Step number   1 out of a maximum of    2
 All quantities printed in internal units (Hartrees-Bohrs-Radians)
 Second derivative matrix not updated -- first step.
 ITU=  0
     Eigenvalues ---    0.10887   0.10899   0.13123   0.17908   0.19549
     Eigenvalues ---    0.19556   0.22550   0.22553   0.23040   0.23660
     Eigenvalues ---    0.23686   0.24660   0.27089   0.27112   0.29462
     Eigenvalues ---    0.32782   0.32811   0.35546   0.36716   0.36729
     Eigenvalues ---    0.37487   0.37708   0.38533   0.38552   0.41094
     Eigenvalues ---    0.41099   0.42892   0.44236   0.44254   0.48877
     Eigenvalues ---    0.52695   0.52787   0.57723   1.43946   2.79812
     Eigenvalues ---    2.82569
 Angle between quadratic step and forces=  34.26 degrees.
 Linear search not attempted -- first point.
 B after Tr=    -0.000000   -0.000000    0.000000
         Rot=    1.000000    0.000000   -0.000000    0.000000 Ang=   0.00 deg.
 Variable       Old X    -DE/DX   Delta X   Delta X   Delta X     New X
                                 (Linear)    (Quad)   (Total)
    X1        3.82882  -0.00005   0.00000  -0.00013  -0.00013   3.82869
    Y1       -1.74715  -0.00006   0.00000  -0.00029  -0.00029  -1.74744
    Z1       -2.87082   0.00000   0.00000   0.00003   0.00003  -2.87080
    X2        3.82906  -0.00009   0.00000  -0.00030  -0.00030   3.82876
    Y2        3.35651   0.00003   0.00000   0.00006   0.00006   3.35657
    Z2       -0.07422   0.00002   0.00000   0.00003   0.00003  -0.07419
    X3       -5.06373   0.00004   0.00000   0.00019   0.00019  -5.06354
    Y3        1.63696   0.00000   0.00000   0.00003   0.00003   1.63699
    Z3       -2.99518   0.00002   0.00000   0.00001   0.00001  -2.99517
    X4       -0.87416   0.00007   0.00000   0.00008   0.00008  -0.87408
    Y4       -0.00046  -0.00013   0.00000  -0.00007  -0.00007  -0.00053
    Z4       -0.00058  -0.00004   0.00000  -0.00000  -0.00000  -0.00058
    X5       -0.56020  -0.00005   0.00000  -0.00010  -0.00010  -0.56030
    Y5        0.09978  -0.00000   0.00000  -0.00006  -0.00006   0.09972
    Z5        5.41678   0.00002   0.00000   0.00008   0.00008   5.41687
    X6       -0.55519   0.00001   0.00000   0.00007   0.00007  -0.55513
    Y6        4.63895   0.00009   0.00000   0.00024   0.00024   4.63920
    Z6       -2.79282  -0.00000   0.00000   0.00003   0.00003  -2.79279
    X7       -0.56247   0.00002   0.00000   0.00013   0.00013  -0.56234
    Y7        4.76589  -0.00002   0.00000  -0.00002  -0.00002   4.76588
    Z7        2.57063   0.00004   0.00000   0.00018   0.00018   2.57081
    X8       -0.55987   0.00009   0.00000   0.00025   0.00025  -0.55961
    Y8       -4.73674  -0.00012   0.00000  -0.00047  -0.00047  -4.73721
    Z8       -2.62300  -0.00006   0.00000  -0.00013  -0.00013  -2.62312
    X9       -5.06411  -0.00000   0.00000   0.00003   0.00003  -5.06408
    Y9        1.77449   0.00007   0.00000   0.00028   0.00028   1.77477
    Z9        2.91611  -0.00003   0.00000  -0.00006  -0.00006   2.91605
   X10       -0.56024  -0.00000   0.00000   0.00007   0.00007  -0.56017
   Y10       -0.15431   0.00004   0.00000  -0.00004  -0.00004  -0.15435
   Z10       -5.41575   0.00004   0.00000   0.00009   0.00009  -5.41565
   X11       -0.56225   0.00003   0.00000   0.00012   0.00012  -0.56213
   Y11       -4.61086   0.00007   0.00000   0.00009   0.00009  -4.61077
   Z11        2.83939  -0.00001   0.00000  -0.00005  -0.00005   2.83934
   X12        7.94387  -0.00004   0.00000  -0.00030  -0.00030   7.94357
   Y12       -0.00253   0.00003   0.00000   0.00029   0.00029  -0.00224
   Z12        0.00204   0.00001   0.00000  -0.00014  -0.00014   0.00190
   X13        3.82576   0.00006   0.00000   0.00014   0.00014   3.82590
   Y13       -1.61139  -0.00004   0.00000  -0.00011  -0.00011  -1.61150
   Z13        2.94918  -0.00000   0.00000  -0.00005  -0.00005   2.94913
   X14       -5.06530  -0.00009   0.00000  -0.00024  -0.00024  -5.06554
   Y14       -3.40916   0.00003   0.00000   0.00007   0.00007  -3.40909
   Z14        0.07824  -0.00000   0.00000  -0.00002  -0.00002   0.07822
         Item               Value     Threshold  Converged?
 Maximum Force            0.000131     0.000450     YES
 RMS     Force            0.000051     0.000300     YES
 Maximum Displacement     0.000473     0.001800     YES
 RMS     Displacement     0.000161     0.001200     YES
 Predicted change in Energy=-1.438401D-07
 Optimization completed.
    -- Stationary point found.
 GradGradGradGradGradGradGradGradGradGradGradGradGradGradGradGradGradGrad

 Leave Link  103 at Wed Feb 26 02:38:01 2025, MaxMem=  2097152000 cpu:               0.3 elap:               0.1
 (Enter /nvme/h/buildsets/eb_nepheli/software/Gaussian/16.C.01-AVX2/g16/l9999.exe)
 Unable to Open any file for archive entry.
 1\1\GINC-NE08\Force\RwB97XD\def2SVP\Ag14\NPATSALIDIS\26-Feb-2025\0\\#p
  wb97xd/def2SVP scf(xqc) scfcyc=999 force\\Template file\\0,1\Ag,2.026
 126,-0.924551,-1.519174\Ag,2.02625,1.776187,-0.039276\Ag,-2.679608,0.8
 66242,-1.58498\Ag,-0.462583,-0.000243,-0.000307\Ag,-0.296444,0.052803,
 2.866438\Ag,-0.293795,2.454828,-1.477896\Ag,-0.297647,2.522003,1.36032
 1\Ag,-0.296268,-2.506573,-1.38803\Ag,-2.679812,0.93902,1.543137\Ag,-0.
 296465,-0.081655,-2.865889\Ag,-0.297528,-2.43996,1.502538\Ag,4.203713,
 -0.001339,0.001078\Ag,2.024506,-0.852713,1.560638\Ag,-2.680443,-1.8040
 49,0.041403\\Version=ES64L-G16RevC.01\State=1-A\HF=-2058.4662371\RMSD=
 6.948e-09\RMSF=5.134e-05\Dipole=0.0056704,-0.0009152,-0.0001641\Quadru
 pole=4.70664,-2.340689,-2.3659509,0.0108798,0.0023043,-0.0121303\PG=C0
 1 [X(Ag14)]\\@
 The archive entry for this job was punched.


 TO SEE A WORLD IN A GRAIN OF SAND
 AND A HEAVEN IN A WILD FLOWER
 HOLD INFINITY IN THE PALM OF YOUR HAND
 AND ETERNITY IN AN HOUR

                       -- WILLIAM BLAKE
 Job cpu time:       0 days  1 hours 11 minutes 41.0 seconds.
 Elapsed time:       0 days  0 hours 18 minutes  5.1 seconds.
 File lengths (MBytes):  RWF=    109 Int=      0 D2E=      0 Chk=     12 Scr=      1
 Normal termination of Gaussian 16 at Wed Feb 26 02:38:01 2025.
