 Entering Gaussian System, Link 0=g16
 Initial command:
 /nvme/h/buildsets/eb_nepheli/software/Gaussian/16.C.01-AVX2/g16/l1.exe "/onyx/data/simea/nikolas/postDoc/Active-Learning-Package/Ag-mainy/init_data/Ag15/Gau-84108.inp" -scrdir="/onyx/data/simea/nikolas/postDoc/Active-Learning-Package/Ag-mainy/init_data/Ag15/"
 Entering Link 1 = /nvme/h/buildsets/eb_nepheli/software/Gaussian/16.C.01-AVX2/g16/l1.exe PID=     84109.
  
 Copyright (c) 1988-2019, Gaussian, Inc.  All Rights Reserved.
  
 This is part of the Gaussian(R) 16 program.  It is based on
 the Gaussian(R) 09 system (copyright 2009, Gaussian, Inc.),
 the Gaussian(R) 03 system (copyright 2003, Gaussian, Inc.),
 the Gaussian(R) 98 system (copyright 1998, Gaussian, Inc.),
 the Gaussian(R) 94 system (copyright 1995, Gaussian, Inc.),
 the Gaussian 92(TM) system (copyright 1992, Gaussian, Inc.),
 the Gaussian 90(TM) system (copyright 1990, Gaussian, Inc.),
 the Gaussian 88(TM) system (copyright 1988, Gaussian, Inc.),
 the Gaussian 86(TM) system (copyright 1986, Carnegie Mellon
 University), and the Gaussian 82(TM) system (copyright 1983,
 Carnegie Mellon University). Gaussian is a federally registered
 trademark of Gaussian, Inc.
  
 This software contains proprietary and confidential information,
 including trade secrets, belonging to Gaussian, Inc.
  
 This software is provided under written license and may be
 used, copied, transmitted, or stored only in accord with that
 written license.
  
 The following legend is applicable only to US Government
 contracts under FAR:
  
                    RESTRICTED RIGHTS LEGEND
  
 Use, reproduction and disclosure by the US Government is
 subject to restrictions as set forth in subparagraphs (a)
 and (c) of the Commercial Computer Software - Restricted
 Rights clause in FAR 52.227-19.
  
 Gaussian, Inc.
 340 Quinnipiac St., Bldg. 40, Wallingford CT 06492
  
  
 ---------------------------------------------------------------
 Warning -- This program may not be used in any manner that
 competes with the business of Gaussian, Inc. or will provide
 assistance to any competitor of Gaussian, Inc.  The licensee
 of this program is prohibited from giving any competitor of
 Gaussian, Inc. access to this program.  By using this program,
 the user acknowledges that Gaussian, Inc. is engaged in the
 business of creating and licensing software in the field of
 computational chemistry and represents and warrants to the
 licensee that it is not a competitor of Gaussian, Inc. and that
 it will not use this program in any manner prohibited above.
 ---------------------------------------------------------------
  

 Cite this work as:
 Gaussian 16, Revision C.01,
 M. J. Frisch, G. W. Trucks, H. B. Schlegel, G. E. Scuseria, 
 M. A. Robb, J. R. Cheeseman, G. Scalmani, V. Barone, 
 G. A. Petersson, H. Nakatsuji, X. Li, M. Caricato, A. V. Marenich, 
 J. Bloino, B. G. Janesko, R. Gomperts, B. Mennucci, H. P. Hratchian, 
 J. V. Ortiz, A. F. Izmaylov, J. L. Sonnenberg, D. Williams-Young, 
 F. Ding, F. Lipparini, F. Egidi, J. Goings, B. Peng, A. Petrone, 
 T. Henderson, D. Ranasinghe, V. G. Zakrzewski, J. Gao, N. Rega, 
 G. Zheng, W. Liang, M. Hada, M. Ehara, K. Toyota, R. Fukuda, 
 J. Hasegawa, M. Ishida, T. Nakajima, Y. Honda, O. Kitao, H. Nakai, 
 T. Vreven, K. Throssell, J. A. Montgomery, Jr., J. E. Peralta, 
 F. Ogliaro, M. J. Bearpark, J. J. Heyd, E. N. Brothers, K. N. Kudin, 
 V. N. Staroverov, T. A. Keith, R. Kobayashi, J. Normand, 
 K. Raghavachari, A. P. Rendell, J. C. Burant, S. S. Iyengar, 
 J. Tomasi, M. Cossi, J. M. Millam, M. Klene, C. Adamo, R. Cammi, 
 J. W. Ochterski, R. L. Martin, K. Morokuma, O. Farkas, 
 J. B. Foresman, and D. J. Fox, Gaussian, Inc., Wallingford CT, 2019.
 
 ******************************************
 Gaussian 16:  ES64L-G16RevC.01  3-Jul-2019
                26-Feb-2025 
 ******************************************
 %nprocshared=4
 Will use up to    4 processors via shared memory.
 %mem=16000MB
 -------------------------------------------
 #p wb97xd/def2SVP scf(xqc) scfcyc=999 force
 -------------------------------------------
 1/10=7,30=1,38=1/1,3;
 2/12=2,17=6,18=5,40=1/2;
 3/5=43,7=101,11=2,25=1,30=1,71=1,74=-58/1,2,3;
 4//1;
 5/5=2,7=999,8=3,13=1,38=5/2,8;
 6/7=2,8=2,9=2,10=2,28=1/1;
 7/29=1/1,2,3,16;
 1/10=7,30=1/3;
 99//99;
 Leave Link    1 at Wed Feb 26 00:25:13 2025, MaxMem=  2097152000 cpu:               0.4 elap:               0.1
 (Enter /nvme/h/buildsets/eb_nepheli/software/Gaussian/16.C.01-AVX2/g16/l101.exe)
 -------------
 Template file
 -------------
 Symbolic Z-matrix:
 Charge =  0 Multiplicity = 2
 Ag                    2.95588   0.00007   1.85006 
 Ag                    2.46043  -2.16594   0.00006 
 Ag                    2.46044   2.16593  -0.00006 
 Ag                   -1.88544   0.00008   1.68952 
 Ag                   -3.77214  -1.4117    0.00002 
 Ag                    0.5099    1.5824   -2.26185 
 Ag                    0.50989  -1.58243   2.26185 
 Ag                    0.5099   -1.58266  -2.2618 
 Ag                    2.95588  -0.00009  -1.85005 
 Ag                   -1.14963   2.23212  -0.00008 
 Ag                    0.50992   1.58269   2.2618 
 Ag                   -3.77213   1.41172  -0.00002 
 Ag                    0.74218  0.         0.00002 
 Ag                   -1.88545  -0.00007  -1.68953 
 Ag                   -1.14964  -2.23211   0.00008 
 
 ITRead=  0  0  0  0  0  0  0  0  0  0  0  0  0  0  0
 MicOpt= -1 -1 -1 -1 -1 -1 -1 -1 -1 -1 -1 -1 -1 -1 -1
 NAtoms=     15 NQM=       15 NQMF=       0 NMMI=      0 NMMIF=      0
                NMic=       0 NMicF=      0.
                    Isotopes and Nuclear Properties:
 (Nuclear quadrupole moments (NQMom) in fm**2, nuclear magnetic moments (NMagM)
  in nuclear magnetons)

  Atom         1           2           3           4           5           6           7           8           9          10
 IAtWgt=         107         107         107         107         107         107         107         107         107         107
 AtmWgt= 106.9050900 106.9050900 106.9050900 106.9050900 106.9050900 106.9050900 106.9050900 106.9050900 106.9050900 106.9050900
 NucSpn=           1           1           1           1           1           1           1           1           1           1
 AtZEff=  -0.0000000  -0.0000000  -0.0000000  -0.0000000  -0.0000000  -0.0000000  -0.0000000  -0.0000000  -0.0000000  -0.0000000
 NQMom=    0.0000000   0.0000000   0.0000000   0.0000000   0.0000000   0.0000000   0.0000000   0.0000000   0.0000000   0.0000000
 NMagM=   -0.1135700  -0.1135700  -0.1135700  -0.1135700  -0.1135700  -0.1135700  -0.1135700  -0.1135700  -0.1135700  -0.1135700
 AtZNuc=  47.0000000  47.0000000  47.0000000  47.0000000  47.0000000  47.0000000  47.0000000  47.0000000  47.0000000  47.0000000

  Atom        11          12          13          14          15
 IAtWgt=         107         107         107         107         107
 AtmWgt= 106.9050900 106.9050900 106.9050900 106.9050900 106.9050900
 NucSpn=           1           1           1           1           1
 AtZEff=  -0.0000000  -0.0000000  -0.0000000  -0.0000000  -0.0000000
 NQMom=    0.0000000   0.0000000   0.0000000   0.0000000   0.0000000
 NMagM=   -0.1135700  -0.1135700  -0.1135700  -0.1135700  -0.1135700
 AtZNuc=  47.0000000  47.0000000  47.0000000  47.0000000  47.0000000
 Leave Link  101 at Wed Feb 26 00:25:13 2025, MaxMem=  2097152000 cpu:               0.2 elap:               0.1
 (Enter /nvme/h/buildsets/eb_nepheli/software/Gaussian/16.C.01-AVX2/g16/l103.exe)

 GradGradGradGradGradGradGradGradGradGradGradGradGradGradGradGradGradGrad
 Berny optimization.
 Initialization pass.
 Trust Radius=3.00D-01 FncErr=1.00D-07 GrdErr=1.00D-07 EigMax=2.50D+02 EigMin=1.00D-04
 Number of steps in this run=      2 maximum allowed number of steps=      2.
 GradGradGradGradGradGradGradGradGradGradGradGradGradGradGradGradGradGrad

 Leave Link  103 at Wed Feb 26 00:25:13 2025, MaxMem=  2097152000 cpu:               0.1 elap:               0.0
 (Enter /nvme/h/buildsets/eb_nepheli/software/Gaussian/16.C.01-AVX2/g16/l202.exe)
                          Input orientation:                          
 ---------------------------------------------------------------------
 Center     Atomic      Atomic             Coordinates (Angstroms)
 Number     Number       Type             X           Y           Z
 ---------------------------------------------------------------------
      1         47           0        2.955884    0.000071    1.850055
      2         47           0        2.460426   -2.165944    0.000058
      3         47           0        2.460440    2.165929   -0.000064
      4         47           0       -1.885440    0.000083    1.689521
      5         47           0       -3.772136   -1.411701    0.000020
      6         47           0        0.509900    1.582403   -2.261847
      7         47           0        0.509893   -1.582431    2.261847
      8         47           0        0.509899   -1.582662   -2.261797
      9         47           0        2.955884   -0.000088   -1.850050
     10         47           0       -1.149630    2.232121   -0.000082
     11         47           0        0.509917    1.582685    2.261795
     12         47           0       -3.772128    1.411723   -0.000024
     13         47           0        0.742182   -0.000002    0.000015
     14         47           0       -1.885446   -0.000072   -1.689525
     15         47           0       -1.149643   -2.232114    0.000079
 ---------------------------------------------------------------------
                    Distance matrix (angstroms):
                    1          2          3          4          5
     1  Ag   0.000000
     2  Ag   2.891295   0.000000
     3  Ag   2.891253   4.331873   0.000000
     4  Ag   4.843985   5.141256   5.141231   0.000000
     5  Ag   7.119128   6.278034   7.186407   2.899512   0.000000
     6  Ag   5.039281   4.792794   3.043152   4.884127   5.693552
     7  Ag   2.942237   3.043149   4.792815   2.927376   4.845697
     8  Ag   5.039366   3.043150   4.792909   4.884224   4.845706
     9  Ag   3.700105   2.891247   2.891287   5.997248   7.119106
    10  Ag   5.025963   5.689946   3.610677   2.894507   4.489429
    11  Ag   2.942270   4.792928   3.043143   2.927433   5.693676
    12  Ag   7.119108   7.186406   6.278036   2.899462   2.823424
    13  Ag   2.884983   2.764718   2.764718   3.123912   4.729901
    14  Ag   5.997258   5.141235   5.141261   3.379046   2.899458
    15  Ag   5.025974   3.610675   5.689946   2.894532   2.747826
                    6          7          8          9         10
     6  Ag   0.000000
     7  Ag   5.520868   0.000000
     8  Ag   3.165065   4.523644   0.000000
     9  Ag   2.942226   5.039284   2.942264   0.000000
    10  Ag   2.879541   4.735097   4.735183   5.025971   0.000000
    11  Ag   4.523642   3.165116   5.521078   5.039364   2.879575
    12  Ag   4.845693   5.693569   5.693656   7.119126   2.747826
    13  Ag   2.770195   2.770185   2.770300   2.884999   2.925974
    14  Ag   2.927364   4.884143   2.927416   4.843991   2.894534
    15  Ag   4.735075   2.879539   2.879575   5.025960   4.464235
                   11         12         13         14         15
    11  Ag   0.000000
    12  Ag   4.845716   0.000000
    13  Ag   2.770288   4.729901   0.000000
    14  Ag   4.884241   2.899508   3.123936   0.000000
    15  Ag   4.735208   4.489429   2.925974   2.894508   0.000000
 Stoichiometry    Ag15(2)
 Framework group  C1[X(Ag15)]
 Deg. of freedom    39
 Full point group                 C1      NOp   1
 Largest Abelian subgroup         C1      NOp   1
 Largest concise Abelian subgroup C1      NOp   1
                         Standard orientation:                         
 ---------------------------------------------------------------------
 Center     Atomic      Atomic             Coordinates (Angstroms)
 Number     Number       Type             X           Y           Z
 ---------------------------------------------------------------------
      1         47           0        2.955887   -0.004904   -1.850043
      2         47           0        2.460431    2.165930   -0.005703
      3         47           0        2.460434   -2.165928    0.005719
      4         47           0       -1.885437   -0.004485   -1.689519
      5         47           0       -3.772132    1.411706   -0.003710
      6         47           0        0.509891   -1.576499    2.265968
      7         47           0        0.509901    1.576524   -2.265966
      8         47           0        0.509899    1.588555    2.257662
      9         47           0        2.955880    0.004906    1.850049
     10         47           0       -1.149636   -2.232110    0.005902
     11         47           0        0.509917   -1.588581   -2.257658
     12         47           0       -3.772132   -1.411708    0.003699
     13         47           0        0.742182    0.000000   -0.000013
     14         47           0       -1.885449    0.004484    1.689515
     15         47           0       -1.149637    2.232109   -0.005904
 ---------------------------------------------------------------------
 Rotational constants (GHZ):           0.0712289           0.0461649           0.0460152
 Leave Link  202 at Wed Feb 26 00:25:14 2025, MaxMem=  2097152000 cpu:               0.0 elap:               0.0
 (Enter /nvme/h/buildsets/eb_nepheli/software/Gaussian/16.C.01-AVX2/g16/l301.exe)
 Standard basis: def2SVP (5D, 7F)
 Ernie: Thresh=  0.10000D-02 Tol=  0.10000D-05 Strict=F.
 There are   540 symmetry adapted cartesian basis functions of A   symmetry.
 There are   465 symmetry adapted basis functions of A   symmetry.
   465 basis functions,   975 primitive gaussians,   540 cartesian basis functions
   143 alpha electrons      142 beta electrons
       nuclear repulsion energy      5228.7369933049 Hartrees.
 IExCor= 4639 DFT=T Ex+Corr=wB97XD ExCW=0 ScaHFX=  1.000000
 ScaDFX=  1.000000  1.000000  1.000000  1.000000 ScalE2=  1.000000  1.000000
 IRadAn=      5 IRanWt=     -1 IRanGd=            0 ICorTp=0 IEmpDi=121
 HFx  wShort=  0.000000 wLong=  0.200000 cFull=  0.222036 cShort=  0.000000 cLong=  0.777964
 DFx  wShort=  0.000000 wLong=  0.200000 cFull=  0.000000 cShort=  0.000000 cLong=  1.000000
 NAtoms=   15 NActive=   15 NUniq=   15 SFac= 1.00D+00 NAtFMM=   60 NAOKFM=F Big=F
 Integral buffers will be    131072 words long.
 Raffenetti 2 integral format.
 Two-electron integral symmetry is turned on.
 R6Disp:  Grimme-D2 Dispersion energy=       -0.0632600127 Hartrees.
 Nuclear repulsion after empirical dispersion term =     5228.6737332922 Hartrees.
 Leave Link  301 at Wed Feb 26 00:25:14 2025, MaxMem=  2097152000 cpu:               0.1 elap:               0.1
 (Enter /nvme/h/buildsets/eb_nepheli/software/Gaussian/16.C.01-AVX2/g16/l302.exe)
 NPDir=0 NMtPBC=     1 NCelOv=     1 NCel=       1 NClECP=     1 NCelD=      1
         NCelK=      1 NCelE2=     1 NClLst=     1 CellRange=     0.0.
 One-electron integrals computed using PRISM.
 One-electron integral symmetry used in STVInt
   1 Symmetry operations used in ECPInt.
 ECPInt:  NShTT=   13695 NPrTT=   40980 LenC2=   13102 LenP2D=   32281.
 LDataN:  DoStor=T MaxTD1= 7 Len=  274
 NBasis=   465 RedAO= T EigKep=  1.10D-04  NBF=   465
 NBsUse=   465 1.00D-06 EigRej= -1.00D+00 NBFU=   465
 Precomputing XC quadrature grid using
 IXCGrd= 4 IRadAn=           5 IRanWt=          -1 IRanGd=           0 AccXCQ= 0.00D+00.
 Defaulting to unpruned grid for atomic number  47.
 Defaulting to unpruned grid for atomic number  47.
 Defaulting to unpruned grid for atomic number  47.
 Defaulting to unpruned grid for atomic number  47.
 Generated NRdTot=       0 NPtTot=           0 NUsed=           0 NTot=          32
 NSgBfM=   538   538   538   538   538 MxSgAt=    15 MxSgA2=    15.
 Leave Link  302 at Wed Feb 26 00:25:18 2025, MaxMem=  2097152000 cpu:              15.2 elap:               3.9
 (Enter /nvme/h/buildsets/eb_nepheli/software/Gaussian/16.C.01-AVX2/g16/l303.exe)
 DipDrv:  MaxL=1.
 Leave Link  303 at Wed Feb 26 00:25:18 2025, MaxMem=  2097152000 cpu:               0.2 elap:               0.1
 (Enter /nvme/h/buildsets/eb_nepheli/software/Gaussian/16.C.01-AVX2/g16/l401.exe)
 ExpMin= 3.75D-02 ExpMax= 9.09D+00 ExpMxC= 9.09D+00 IAcc=3 IRadAn=         5 AccDes= 0.00D+00
 Harris functional with IExCor= 4639 and IRadAn=       5 diagonalized for initial guess.
 HarFok:  IExCor= 4639 AccDes= 0.00D+00 IRadAn=         5 IDoV= 1 UseB2=F ITyADJ=14
 ICtDFT=  3500011 ScaDFX=  1.000000  1.000000  1.000000  1.000000
 Defaulting to unpruned grid for atomic number  47.
 FoFCou: FMM=F IPFlag=           0 FMFlag=      100000 FMFlg1=           0
         NFxFlg=           0 DoJE=T BraDBF=F KetDBF=T FulRan=T
         wScrn=  0.000000 ICntrl=       500 IOpCl=  0 I1Cent=   200000004 NGrid=           0
         NMat0=    1 NMatS0=      1 NMatT0=    0 NMatD0=    1 NMtDS0=    0 NMtDT0=    0
 Petite list used in FoFCou.
 Harris En= -2146.58740797734    
 JPrj=0 DoOrth=F DoCkMO=F.
 Initial guess <Sx>= 0.0000 <Sy>= 0.0000 <Sz>= 0.5000 <S**2>= 0.7500 S= 0.5000
 Leave Link  401 at Wed Feb 26 00:25:23 2025, MaxMem=  2097152000 cpu:              17.2 elap:               4.4
 (Enter /nvme/h/buildsets/eb_nepheli/software/Gaussian/16.C.01-AVX2/g16/l502.exe)
 Integral symmetry usage will be decided dynamically.
 UHF open shell SCF:
 Using DIIS extrapolation, IDIIS=  1040.
 NGot=  2097152000 LenX=  2096560474 LenY=  2096268334
 Requested convergence on RMS density matrix=1.00D-08 within 128 cycles.
 Requested convergence on MAX density matrix=1.00D-06.
 Requested convergence on             energy=1.00D-06.
 No special actions if energy rises.
 Fock matrices will be formed incrementally for  20 cycles.

 Cycle   1  Pass 1  IDiag  1:
 FoFJK:  IHMeth= 1 ICntrl=       0 DoSepK=T KAlg= 0 I1Cent=           0 FoldK=F
 IRaf=         1 NMat=       1 IRICut=       1 DoRegI=T DoRafI=F ISym2E= 0 IDoP0=0 IntGTp=1.
 FoFCou: FMM=F IPFlag=           0 FMFlag=      100000 FMFlg1=           0
         NFxFlg=           0 DoJE=T BraDBF=F KetDBF=F FulRan=T
         wScrn=  0.000000 ICntrl=       500 IOpCl=  0 I1Cent=           0 NGrid=           0
         NMat0=    1 NMatS0=      1 NMatT0=    0 NMatD0=    1 NMtDS0=    0 NMtDT0=    0
 Symmetry not used in FoFCou.
 Defaulting to unpruned grid for atomic number  47.
 Defaulting to unpruned grid for atomic number  47.
 Defaulting to unpruned grid for atomic number  47.
 Defaulting to unpruned grid for atomic number  47.
 E= -2184.36059233019    
 DIIS: error= 1.96D-01 at cycle   1 NSaved=   1.
 NSaved= 1 IEnMin= 1 EnMin= -2184.36059233019     IErMin= 1 ErrMin= 1.96D-01
 ErrMax= 1.96D-01  0.00D+00 EMaxC= 1.00D-01 BMatC= 9.98D+01 BMatP= 9.98D+01
 IDIUse=3 WtCom= 0.00D+00 WtEn= 1.00D+00
 Coeff-Com:  0.100D+01
 Coeff-En:   0.100D+01
 Coeff:      0.100D+01
 Gap=     0.208 Goal=   None    Shift=    0.000
 Gap=     0.088 Goal=   None    Shift=    0.000
 GapD=    0.088 DampG=0.500 DampE=0.125 DampFc=0.1250 IDamp=-1.
 Damping current iteration by 1.25D-01
 RMSDP=5.02D-02 MaxDP=7.67D+00              OVMax= 8.70D-01

 Cycle   2  Pass 1  IDiag  1:
 RMSU=  6.03D-03    CP:  9.65D-01
 E= -2189.28346617121     Delta-E=       -4.922873841015 Rises=F Damp=T
 DIIS: error= 1.47D-01 at cycle   2 NSaved=   2.
 NSaved= 2 IEnMin= 2 EnMin= -2189.28346617121     IErMin= 2 ErrMin= 1.47D-01
 ErrMax= 1.47D-01  0.00D+00 EMaxC= 1.00D-01 BMatC= 5.46D+01 BMatP= 9.98D+01
 IDIUse=3 WtCom= 0.00D+00 WtEn= 1.00D+00
 Coeff-Com: -0.274D+01 0.374D+01
 Coeff-En:   0.000D+00 0.100D+01
 Coeff:      0.000D+00 0.100D+01
 Gap=     0.054 Goal=   None    Shift=    0.000
 Gap=     0.061 Goal=   None    Shift=    0.000
 RMSDP=3.61D-02 MaxDP=2.56D+00 DE=-4.92D+00 OVMax= 1.72D-01

 Cycle   3  Pass 1  IDiag  1:
 RMSU=  2.20D-02    CP:  6.67D-01  3.00D+00
 E= -2196.65989672245     Delta-E=       -7.376430551241 Rises=F Damp=F
 DIIS: error= 1.06D-01 at cycle   3 NSaved=   3.
 NSaved= 3 IEnMin= 3 EnMin= -2196.65989672245     IErMin= 3 ErrMin= 1.06D-01
 ErrMax= 1.06D-01  0.00D+00 EMaxC= 1.00D-01 BMatC= 3.68D+01 BMatP= 5.46D+01
 IDIUse=3 WtCom= 0.00D+00 WtEn= 1.00D+00
 EnCoef did    21 forward-backward iterations
 Coeff-Com: -0.253D+01 0.348D+01 0.471D-01
 Coeff-En:   0.298D+00 0.115D-02 0.701D+00
 Coeff:      0.298D+00 0.115D-02 0.701D+00
 Gap=     0.122 Goal=   None    Shift=    0.000
 Gap=     0.102 Goal=   None    Shift=    0.000
 RMSDP=3.59D-02 MaxDP=5.63D+00 DE=-7.38D+00 OVMax= 5.68D-01

 Cycle   4  Pass 1  IDiag  1:
 RMSU=  1.83D-02    CP:  4.62D-01  1.15D+00  2.14D-01
 E= -2202.72416626237     Delta-E=       -6.064269539923 Rises=F Damp=F
 DIIS: error= 1.57D-01 at cycle   4 NSaved=   4.
 NSaved= 4 IEnMin= 4 EnMin= -2202.72416626237     IErMin= 3 ErrMin= 1.06D-01
 ErrMax= 1.57D-01  0.00D+00 EMaxC= 1.00D-01 BMatC= 1.58D+01 BMatP= 3.68D+01
 IDIUse=3 WtCom= 0.00D+00 WtEn= 1.00D+00
 Coeff-Com: -0.197D+01 0.267D+01 0.494D-01 0.255D+00
 Coeff-En:   0.000D+00 0.000D+00 0.179D+00 0.821D+00
 Coeff:      0.000D+00 0.000D+00 0.179D+00 0.821D+00
 Gap=     0.560 Goal=   None    Shift=    0.000
 Gap=     0.585 Goal=   None    Shift=    0.000
 RMSDP=2.77D-02 MaxDP=4.67D+00 DE=-6.06D+00 OVMax= 7.33D-01

 Cycle   5  Pass 1  IDiag  1:
 RMSU=  2.16D-02    CP:  5.69D-01  3.00D+00  1.31D-01  4.47D-01
 E= -2197.48880452524     Delta-E=        5.235361737135 Rises=F Damp=F
 DIIS: error= 7.99D-02 at cycle   5 NSaved=   5.
 NSaved= 5 IEnMin= 4 EnMin= -2202.72416626237     IErMin= 5 ErrMin= 7.99D-02
 ErrMax= 7.99D-02  0.00D+00 EMaxC= 1.00D-01 BMatC= 3.36D+01 BMatP= 1.58D+01
 IDIUse=2 WtCom= 0.00D+00 WtEn= 1.00D+00
 Coeff-En:   0.000D+00 0.000D+00 0.000D+00 0.698D+00 0.302D+00
 Coeff:      0.000D+00 0.000D+00 0.000D+00 0.698D+00 0.302D+00
 Gap=    -0.004 Goal=   None    Shift=    0.000
 Gap=     0.001 Goal=   None    Shift=    0.000
 RMSDP=2.49D-02 MaxDP=5.71D+00 DE= 5.24D+00 OVMax= 6.22D-01

 Cycle   6  Pass 1  IDiag  1:
 RMSU=  9.96D-03    CP:  4.25D-01  1.69D+00  2.73D-01  8.11D-01  1.71D-01
 E= -2204.71389326623     Delta-E=       -7.225088740995 Rises=F Damp=F
 DIIS: error= 3.74D-02 at cycle   6 NSaved=   6.
 NSaved= 6 IEnMin= 6 EnMin= -2204.71389326623     IErMin= 6 ErrMin= 3.74D-02
 ErrMax= 3.74D-02  0.00D+00 EMaxC= 1.00D-01 BMatC= 3.88D+00 BMatP= 1.58D+01
 IDIUse=3 WtCom= 6.26D-01 WtEn= 3.74D-01
 Coeff-Com: -0.124D+01 0.167D+01-0.227D-01 0.247D+00 0.106D-02 0.344D+00
 Coeff-En:   0.000D+00 0.000D+00 0.000D+00 0.241D+00 0.000D+00 0.759D+00
 Coeff:     -0.774D+00 0.104D+01-0.142D-01 0.245D+00 0.666D-03 0.500D+00
 Gap=     0.147 Goal=   None    Shift=    0.000
 Gap=     0.144 Goal=   None    Shift=    0.000
 RMSDP=6.60D-03 MaxDP=5.56D-01 DE=-7.23D+00 OVMax= 2.46D-01

 Cycle   7  Pass 1  IDiag  1:
 RMSU=  5.39D-03    CP:  4.29D-01  1.25D+00  2.73D-01  8.53D-01  1.10D-01
                    CP:  7.73D-01
 E= -2205.26319400850     Delta-E=       -0.549300742266 Rises=F Damp=F
 DIIS: error= 1.91D-02 at cycle   7 NSaved=   7.
 NSaved= 7 IEnMin= 7 EnMin= -2205.26319400850     IErMin= 7 ErrMin= 1.91D-02
 ErrMax= 1.91D-02  0.00D+00 EMaxC= 1.00D-01 BMatC= 9.35D-01 BMatP= 3.88D+00
 IDIUse=3 WtCom= 8.09D-01 WtEn= 1.91D-01
 Coeff-Com: -0.356D+00 0.497D+00-0.832D-01 0.723D-01-0.445D-01 0.341D+00
 Coeff-Com:  0.574D+00
 Coeff-En:   0.000D+00 0.000D+00 0.000D+00 0.000D+00 0.000D+00 0.506D-01
 Coeff-En:   0.949D+00
 Coeff:     -0.288D+00 0.402D+00-0.672D-01 0.585D-01-0.360D-01 0.285D+00
 Coeff:      0.645D+00
 Gap=     0.147 Goal=   None    Shift=    0.000
 Gap=     0.131 Goal=   None    Shift=    0.000
 RMSDP=4.32D-03 MaxDP=3.92D-01 DE=-5.49D-01 OVMax= 1.92D-01

 Cycle   8  Pass 1  IDiag  1:
 RMSU=  2.93D-03    CP:  3.97D-01  1.15D+00  2.46D-01  8.92D-01  8.69D-02
                    CP:  7.76D-01  5.44D-01
 E= -2205.48349047324     Delta-E=       -0.220296464744 Rises=F Damp=F
 DIIS: error= 5.33D-03 at cycle   8 NSaved=   8.
 NSaved= 8 IEnMin= 8 EnMin= -2205.48349047324     IErMin= 8 ErrMin= 5.33D-03
 ErrMax= 5.33D-03  0.00D+00 EMaxC= 1.00D-01 BMatC= 1.04D-01 BMatP= 9.35D-01
 IDIUse=3 WtCom= 9.47D-01 WtEn= 5.33D-02
 Coeff-Com: -0.148D+00 0.210D+00-0.403D-01 0.539D-02-0.887D-02 0.386D-01
 Coeff-Com:  0.253D+00 0.689D+00
 Coeff-En:   0.000D+00 0.000D+00 0.000D+00 0.000D+00 0.000D+00 0.000D+00
 Coeff-En:   0.000D+00 0.100D+01
 Coeff:     -0.140D+00 0.199D+00-0.381D-01 0.511D-02-0.840D-02 0.366D-01
 Coeff:      0.239D+00 0.706D+00
 Gap=     0.133 Goal=   None    Shift=    0.000
 Gap=     0.132 Goal=   None    Shift=    0.000
 RMSDP=1.79D-03 MaxDP=1.87D-01 DE=-2.20D-01 OVMax= 6.13D-02

 Cycle   9  Pass 1  IDiag  1:
 RMSU=  1.15D-03    CP:  3.82D-01  1.14D+00  2.34D-01  8.90D-01  8.71D-02
                    CP:  7.72D-01  7.28D-01  1.18D+00
 E= -2205.50119717124     Delta-E=       -0.017706697998 Rises=F Damp=F
 DIIS: error= 4.36D-03 at cycle   9 NSaved=   9.
 NSaved= 9 IEnMin= 9 EnMin= -2205.50119717124     IErMin= 9 ErrMin= 4.36D-03
 ErrMax= 4.36D-03  0.00D+00 EMaxC= 1.00D-01 BMatC= 3.46D-02 BMatP= 1.04D-01
 IDIUse=3 WtCom= 9.56D-01 WtEn= 4.36D-02
 Coeff-Com: -0.136D-01 0.231D-01-0.150D-01-0.917D-02 0.710D-02-0.482D-01
 Coeff-Com: -0.193D-01 0.390D+00 0.685D+00
 Coeff-En:   0.000D+00 0.000D+00 0.000D+00 0.000D+00 0.000D+00 0.000D+00
 Coeff-En:   0.000D+00 0.331D-01 0.967D+00
 Coeff:     -0.130D-01 0.221D-01-0.143D-01-0.877D-02 0.679D-02-0.461D-01
 Coeff:     -0.185D-01 0.375D+00 0.697D+00
 Gap=     0.136 Goal=   None    Shift=    0.000
 Gap=     0.131 Goal=   None    Shift=    0.000
 RMSDP=1.03D-03 MaxDP=9.81D-02 DE=-1.77D-02 OVMax= 3.13D-02

 Cycle  10  Pass 1  IDiag  1:
 RMSU=  4.38D-04    CP:  3.71D-01  1.12D+00  2.26D-01  8.96D-01  8.24D-02
                    CP:  7.60D-01  7.03D-01  1.41D+00  1.08D+00
 E= -2205.50938035963     Delta-E=       -0.008183188392 Rises=F Damp=F
 DIIS: error= 6.55D-04 at cycle  10 NSaved=  10.
 NSaved=10 IEnMin=10 EnMin= -2205.50938035963     IErMin=10 ErrMin= 6.55D-04
 ErrMax= 6.55D-04  0.00D+00 EMaxC= 1.00D-01 BMatC= 1.15D-03 BMatP= 3.46D-02
 IDIUse=3 WtCom= 9.93D-01 WtEn= 6.55D-03
 Coeff-Com: -0.155D-01 0.211D-01-0.149D-02-0.346D-02 0.279D-02-0.173D-01
 Coeff-Com: -0.290D-01 0.250D-01 0.197D+00 0.820D+00
 Coeff-En:   0.000D+00 0.000D+00 0.000D+00 0.000D+00 0.000D+00 0.000D+00
 Coeff-En:   0.000D+00 0.000D+00 0.000D+00 0.100D+01
 Coeff:     -0.154D-01 0.210D-01-0.148D-02-0.344D-02 0.277D-02-0.171D-01
 Coeff:     -0.288D-01 0.248D-01 0.196D+00 0.821D+00
 Gap=     0.136 Goal=   None    Shift=    0.000
 Gap=     0.132 Goal=   None    Shift=    0.000
 RMSDP=1.90D-04 MaxDP=1.62D-02 DE=-8.18D-03 OVMax= 7.00D-03

 Cycle  11  Pass 1  IDiag  1:
 RMSU=  1.56D-04    CP:  3.69D-01  1.12D+00  2.26D-01  8.95D-01  8.35D-02
                    CP:  7.64D-01  7.04D-01  1.42D+00  1.11D+00  1.08D+00
 E= -2205.50968560100     Delta-E=       -0.000305241365 Rises=F Damp=F
 DIIS: error= 4.38D-04 at cycle  11 NSaved=  11.
 NSaved=11 IEnMin=11 EnMin= -2205.50968560100     IErMin=11 ErrMin= 4.38D-04
 ErrMax= 4.38D-04  0.00D+00 EMaxC= 1.00D-01 BMatC= 4.37D-04 BMatP= 1.15D-03
 IDIUse=3 WtCom= 9.96D-01 WtEn= 4.38D-03
 Coeff-Com:  0.152D-02-0.231D-02-0.498D-03-0.426D-04 0.388D-04 0.278D-02
 Coeff-Com: -0.616D-02-0.509D-01-0.418D-01 0.248D+00 0.850D+00
 Coeff-En:   0.000D+00 0.000D+00 0.000D+00 0.000D+00 0.000D+00 0.000D+00
 Coeff-En:   0.000D+00 0.000D+00 0.000D+00 0.000D+00 0.100D+01
 Coeff:      0.151D-02-0.230D-02-0.496D-03-0.424D-04 0.386D-04 0.277D-02
 Coeff:     -0.613D-02-0.507D-01-0.417D-01 0.247D+00 0.850D+00
 Gap=     0.137 Goal=   None    Shift=    0.000
 Gap=     0.132 Goal=   None    Shift=    0.000
 RMSDP=1.69D-04 MaxDP=1.97D-02 DE=-3.05D-04 OVMax= 4.03D-03

 Cycle  12  Pass 1  IDiag  1:
 RMSU=  4.76D-05    CP:  3.68D-01  1.12D+00  2.25D-01  8.95D-01  8.30D-02
                    CP:  7.63D-01  7.05D-01  1.44D+00  1.17D+00  1.26D+00
                    CP:  1.23D+00
 E= -2205.50982026609     Delta-E=       -0.000134665091 Rises=F Damp=F
 DIIS: error= 1.04D-04 at cycle  12 NSaved=  12.
 NSaved=12 IEnMin=12 EnMin= -2205.50982026609     IErMin=12 ErrMin= 1.04D-04
 ErrMax= 1.04D-04  0.00D+00 EMaxC= 1.00D-01 BMatC= 2.02D-05 BMatP= 4.37D-04
 IDIUse=3 WtCom= 9.99D-01 WtEn= 1.04D-03
 Coeff-Com:  0.124D-02-0.188D-02 0.428D-04 0.261D-03-0.141D-03 0.116D-02
 Coeff-Com: -0.169D-02-0.134D-01-0.198D-01 0.179D-01 0.280D+00 0.736D+00
 Coeff-En:   0.000D+00 0.000D+00 0.000D+00 0.000D+00 0.000D+00 0.000D+00
 Coeff-En:   0.000D+00 0.000D+00 0.000D+00 0.000D+00 0.000D+00 0.100D+01
 Coeff:      0.124D-02-0.187D-02 0.428D-04 0.260D-03-0.141D-03 0.116D-02
 Coeff:     -0.169D-02-0.133D-01-0.198D-01 0.179D-01 0.280D+00 0.737D+00
 Gap=     0.137 Goal=   None    Shift=    0.000
 Gap=     0.132 Goal=   None    Shift=    0.000
 RMSDP=3.81D-05 MaxDP=3.99D-03 DE=-1.35D-04 OVMax= 1.81D-03

 Cycle  13  Pass 1  IDiag  1:
 RMSU=  1.60D-05    CP:  3.67D-01  1.12D+00  2.25D-01  8.95D-01  8.28D-02
                    CP:  7.62D-01  7.03D-01  1.44D+00  1.17D+00  1.28D+00
                    CP:  1.40D+00  1.24D+00
 E= -2205.50983101715     Delta-E=       -0.000010751063 Rises=F Damp=F
 DIIS: error= 5.60D-05 at cycle  13 NSaved=  13.
 NSaved=13 IEnMin=13 EnMin= -2205.50983101715     IErMin=13 ErrMin= 5.60D-05
 ErrMax= 5.60D-05  0.00D+00 EMaxC= 1.00D-01 BMatC= 5.21D-06 BMatP= 2.02D-05
 IDIUse=1 WtCom= 1.00D+00 WtEn= 0.00D+00
 Coeff-Com: -0.407D-03 0.487D-03 0.198D-03 0.622D-04-0.493D-04-0.357D-03
 Coeff-Com:  0.487D-03 0.646D-02 0.426D-02-0.421D-01-0.627D-01 0.156D+00
 Coeff-Com:  0.937D+00
 Coeff:     -0.407D-03 0.487D-03 0.198D-03 0.622D-04-0.493D-04-0.357D-03
 Coeff:      0.487D-03 0.646D-02 0.426D-02-0.421D-01-0.627D-01 0.156D+00
 Coeff:      0.937D+00
 Gap=     0.137 Goal=   None    Shift=    0.000
 Gap=     0.132 Goal=   None    Shift=    0.000
 RMSDP=2.98D-05 MaxDP=2.78D-03 DE=-1.08D-05 OVMax= 1.61D-03

 Cycle  14  Pass 1  IDiag  1:
 RMSU=  9.62D-06    CP:  3.68D-01  1.12D+00  2.25D-01  8.95D-01  8.28D-02
                    CP:  7.62D-01  7.01D-01  1.44D+00  1.17D+00  1.29D+00
                    CP:  1.51D+00  1.48D+00  1.55D+00
 E= -2205.50983555444     Delta-E=       -0.000004537293 Rises=F Damp=F
 DIIS: error= 3.73D-05 at cycle  14 NSaved=  14.
 NSaved=14 IEnMin=14 EnMin= -2205.50983555444     IErMin=14 ErrMin= 3.73D-05
 ErrMax= 3.73D-05  0.00D+00 EMaxC= 1.00D-01 BMatC= 1.08D-06 BMatP= 5.21D-06
 IDIUse=1 WtCom= 1.00D+00 WtEn= 0.00D+00
 Coeff-Com: -0.188D-03 0.271D-03 0.118D-04-0.416D-04 0.100D-04-0.210D-04
 Coeff-Com:  0.894D-03 0.297D-02 0.311D-02-0.217D-01-0.687D-01-0.104D+00
 Coeff-Com:  0.298D+00 0.889D+00
 Coeff:     -0.188D-03 0.271D-03 0.118D-04-0.416D-04 0.100D-04-0.210D-04
 Coeff:      0.894D-03 0.297D-02 0.311D-02-0.217D-01-0.687D-01-0.104D+00
 Coeff:      0.298D+00 0.889D+00
 Gap=     0.137 Goal=   None    Shift=    0.000
 Gap=     0.132 Goal=   None    Shift=    0.000
 RMSDP=1.49D-05 MaxDP=1.60D-03 DE=-4.54D-06 OVMax= 1.22D-03

 Cycle  15  Pass 1  IDiag  1:
 RMSU=  4.99D-06    CP:  3.68D-01  1.12D+00  2.25D-01  8.95D-01  8.29D-02
                    CP:  7.62D-01  7.01D-01  1.44D+00  1.17D+00  1.30D+00
                    CP:  1.56D+00  1.62D+00  1.94D+00  1.55D+00
 E= -2205.50983709737     Delta-E=       -0.000001542924 Rises=F Damp=F
 DIIS: error= 1.75D-05 at cycle  15 NSaved=  15.
 NSaved=15 IEnMin=15 EnMin= -2205.50983709737     IErMin=15 ErrMin= 1.75D-05
 ErrMax= 1.75D-05  0.00D+00 EMaxC= 1.00D-01 BMatC= 1.96D-07 BMatP= 1.08D-06
 IDIUse=1 WtCom= 1.00D+00 WtEn= 0.00D+00
 Coeff-Com: -0.388D-04 0.757D-04-0.408D-04-0.186D-04 0.517D-05 0.118D-03
 Coeff-Com:  0.260D-03-0.357D-03 0.907D-04 0.598D-03-0.142D-01-0.519D-01
 Coeff-Com: -0.684D-01 0.180D+00 0.954D+00
 Coeff:     -0.388D-04 0.757D-04-0.408D-04-0.186D-04 0.517D-05 0.118D-03
 Coeff:      0.260D-03-0.357D-03 0.907D-04 0.598D-03-0.142D-01-0.519D-01
 Coeff:     -0.684D-01 0.180D+00 0.954D+00
 Gap=     0.137 Goal=   None    Shift=    0.000
 Gap=     0.132 Goal=   None    Shift=    0.000
 RMSDP=8.01D-06 MaxDP=7.01D-04 DE=-1.54D-06 OVMax= 7.32D-04

 Cycle  16  Pass 1  IDiag  1:
 RMSU=  2.06D-06    CP:  3.68D-01  1.12D+00  2.25D-01  8.95D-01  8.29D-02
                    CP:  7.63D-01  7.01D-01  1.44D+00  1.18D+00  1.30D+00
                    CP:  1.58D+00  1.68D+00  2.11D+00  2.00D+00  1.76D+00
 E= -2205.50983750110     Delta-E=       -0.000000403738 Rises=F Damp=F
 DIIS: error= 1.04D-05 at cycle  16 NSaved=  16.
 NSaved=16 IEnMin=16 EnMin= -2205.50983750110     IErMin=16 ErrMin= 1.04D-05
 ErrMax= 1.04D-05  0.00D+00 EMaxC= 1.00D-01 BMatC= 5.25D-08 BMatP= 1.96D-07
 IDIUse=1 WtCom= 1.00D+00 WtEn= 0.00D+00
 Coeff-Com: -0.127D-04 0.209D-04 0.209D-05 0.849D-05 0.726D-07-0.805D-04
 Coeff-Com: -0.321D-03-0.441D-03-0.157D-03 0.592D-02 0.111D-01 0.204D-01
 Coeff-Com: -0.774D-01-0.248D+00 0.170D+00 0.112D+01
 Coeff:     -0.127D-04 0.209D-04 0.209D-05 0.849D-05 0.726D-07-0.805D-04
 Coeff:     -0.321D-03-0.441D-03-0.157D-03 0.592D-02 0.111D-01 0.204D-01
 Coeff:     -0.774D-01-0.248D+00 0.170D+00 0.112D+01
 Gap=     0.137 Goal=   None    Shift=    0.000
 Gap=     0.132 Goal=   None    Shift=    0.000
 RMSDP=5.67D-06 MaxDP=5.14D-04 DE=-4.04D-07 OVMax= 4.55D-04

 Cycle  17  Pass 1  IDiag  1:
 RMSU=  1.06D-06    CP:  3.68D-01  1.12D+00  2.25D-01  8.95D-01  8.29D-02
                    CP:  7.63D-01  7.01D-01  1.44D+00  1.18D+00  1.30D+00
                    CP:  1.58D+00  1.71D+00  2.24D+00  2.33D+00  2.37D+00
                    CP:  1.63D+00
 E= -2205.50983762548     Delta-E=       -0.000000124371 Rises=F Damp=F
 DIIS: error= 3.63D-06 at cycle  17 NSaved=  17.
 NSaved=17 IEnMin=17 EnMin= -2205.50983762548     IErMin=17 ErrMin= 3.63D-06
 ErrMax= 3.63D-06  0.00D+00 EMaxC= 1.00D-01 BMatC= 7.60D-09 BMatP= 5.25D-08
 IDIUse=1 WtCom= 1.00D+00 WtEn= 0.00D+00
 Coeff-Com:  0.233D-04-0.330D-04 0.365D-05 0.567D-05-0.642D-06-0.257D-04
 Coeff-Com: -0.543D-04-0.891D-04 0.136D-03 0.231D-03 0.262D-02 0.877D-02
 Coeff-Com:  0.608D-02-0.424D-01-0.112D+00 0.757D-02 0.113D+01
 Coeff:      0.233D-04-0.330D-04 0.365D-05 0.567D-05-0.642D-06-0.257D-04
 Coeff:     -0.543D-04-0.891D-04 0.136D-03 0.231D-03 0.262D-02 0.877D-02
 Coeff:      0.608D-02-0.424D-01-0.112D+00 0.757D-02 0.113D+01
 Gap=     0.137 Goal=   None    Shift=    0.000
 Gap=     0.132 Goal=   None    Shift=    0.000
 RMSDP=2.27D-06 MaxDP=1.99D-04 DE=-1.24D-07 OVMax= 1.56D-04

 Cycle  18  Pass 1  IDiag  1:
 RMSU=  3.85D-07    CP:  3.68D-01  1.12D+00  2.25D-01  8.95D-01  8.29D-02
                    CP:  7.63D-01  7.02D-01  1.44D+00  1.18D+00  1.30D+00
                    CP:  1.58D+00  1.71D+00  2.28D+00  2.43D+00  2.61D+00
                    CP:  1.97D+00  1.64D+00
 E= -2205.50983764112     Delta-E=       -0.000000015640 Rises=F Damp=F
 DIIS: error= 1.97D-06 at cycle  18 NSaved=  18.
 NSaved=18 IEnMin=18 EnMin= -2205.50983764112     IErMin=18 ErrMin= 1.97D-06
 ErrMax= 1.97D-06  0.00D+00 EMaxC= 1.00D-01 BMatC= 1.58D-09 BMatP= 7.60D-09
 IDIUse=1 WtCom= 1.00D+00 WtEn= 0.00D+00
 Coeff-Com:  0.561D-05-0.852D-05-0.664D-07-0.300D-06-0.290D-06 0.179D-04
 Coeff-Com:  0.424D-04-0.336D-05-0.273D-04-0.498D-03-0.245D-03-0.216D-02
 Coeff-Com:  0.650D-02 0.267D-01-0.325D-01-0.145D+00 0.165D+00 0.982D+00
 Coeff:      0.561D-05-0.852D-05-0.664D-07-0.300D-06-0.290D-06 0.179D-04
 Coeff:      0.424D-04-0.336D-05-0.273D-04-0.498D-03-0.245D-03-0.216D-02
 Coeff:      0.650D-02 0.267D-01-0.325D-01-0.145D+00 0.165D+00 0.982D+00
 Gap=     0.137 Goal=   None    Shift=    0.000
 Gap=     0.132 Goal=   None    Shift=    0.000
 RMSDP=7.46D-07 MaxDP=1.46D-04 DE=-1.56D-08 OVMax= 7.11D-05

 Cycle  19  Pass 1  IDiag  1:
 RMSU=  1.63D-07    CP:  3.68D-01  1.12D+00  2.25D-01  8.95D-01  8.29D-02
                    CP:  7.63D-01  7.02D-01  1.44D+00  1.18D+00  1.30D+00
                    CP:  1.58D+00  1.71D+00  2.29D+00  2.46D+00  2.68D+00
                    CP:  2.07D+00  1.93D+00  1.89D+00
 E= -2205.50983764381     Delta-E=       -0.000000002692 Rises=F Damp=F
 DIIS: error= 1.24D-06 at cycle  19 NSaved=  19.
 NSaved=19 IEnMin=19 EnMin= -2205.50983764381     IErMin=19 ErrMin= 1.24D-06
 ErrMax= 1.24D-06  0.00D+00 EMaxC= 1.00D-01 BMatC= 3.43D-10 BMatP= 1.58D-09
 IDIUse=1 WtCom= 1.00D+00 WtEn= 0.00D+00
 Coeff-Com:  0.148D-06-0.317D-06-0.711D-06-0.968D-06-0.103D-06 0.844D-05
 Coeff-Com:  0.168D-04 0.474D-04-0.160D-04-0.179D-03-0.635D-03-0.141D-02
 Coeff-Com:  0.174D-03 0.101D-01 0.145D-01-0.131D-01-0.205D+00 0.124D+00
 Coeff-Com:  0.107D+01
 Coeff:      0.148D-06-0.317D-06-0.711D-06-0.968D-06-0.103D-06 0.844D-05
 Coeff:      0.168D-04 0.474D-04-0.160D-04-0.179D-03-0.635D-03-0.141D-02
 Coeff:      0.174D-03 0.101D-01 0.145D-01-0.131D-01-0.205D+00 0.124D+00
 Coeff:      0.107D+01
 Gap=     0.137 Goal=   None    Shift=    0.000
 Gap=     0.132 Goal=   None    Shift=    0.000
 RMSDP=4.67D-07 MaxDP=9.75D-05 DE=-2.69D-09 OVMax= 5.19D-05

 Cycle  20  Pass 1  IDiag  1:
 RMSU=  1.10D-07    CP:  3.68D-01  1.12D+00  2.25D-01  8.95D-01  8.29D-02
                    CP:  7.63D-01  7.02D-01  1.44D+00  1.18D+00  1.30D+00
                    CP:  1.58D+00  1.71D+00  2.29D+00  2.47D+00  2.70D+00
                    CP:  2.12D+00  2.11D+00  2.68D+00  1.87D+00
 E= -2205.50983764487     Delta-E=       -0.000000001058 Rises=F Damp=F
 DIIS: error= 9.23D-07 at cycle  20 NSaved=  20.
 NSaved=20 IEnMin=20 EnMin= -2205.50983764487     IErMin=20 ErrMin= 9.23D-07
 ErrMax= 9.23D-07  0.00D+00 EMaxC= 1.00D-01 BMatC= 1.35D-10 BMatP= 3.43D-10
 IDIUse=1 WtCom= 1.00D+00 WtEn= 0.00D+00
 Coeff-Com: -0.226D-05 0.327D-05-0.226D-06-0.548D-06 0.183D-06-0.312D-05
 Coeff-Com: -0.565D-05 0.135D-04 0.991D-05 0.848D-04-0.207D-03-0.507D-05
 Coeff-Com: -0.189D-02-0.290D-02 0.167D-01 0.325D-01-0.116D+00-0.265D+00
 Coeff-Com:  0.410D+00 0.927D+00
 Coeff:     -0.226D-05 0.327D-05-0.226D-06-0.548D-06 0.183D-06-0.312D-05
 Coeff:     -0.565D-05 0.135D-04 0.991D-05 0.848D-04-0.207D-03-0.507D-05
 Coeff:     -0.189D-02-0.290D-02 0.167D-01 0.325D-01-0.116D+00-0.265D+00
 Coeff:      0.410D+00 0.927D+00
 Gap=     0.137 Goal=   None    Shift=    0.000
 Gap=     0.132 Goal=   None    Shift=    0.000
 RMSDP=3.24D-07 MaxDP=7.40D-05 DE=-1.06D-09 OVMax= 3.81D-05

 Cycle  21  Pass 1  IDiag  1:
 Restarting incremental Fock formation.
 E= -2205.50983764523     Delta-E=       -0.000000000363 Rises=F Damp=F
 DIIS: error= 5.37D-07 at cycle  21 NSaved=  20.
 NSaved=20 IEnMin=20 EnMin= -2205.50983764523     IErMin=20 ErrMin= 5.37D-07
 ErrMax= 5.37D-07  0.00D+00 EMaxC= 1.00D-01 BMatC= 5.38D-11 BMatP= 1.35D-10
 IDIUse=1 WtCom= 1.00D+00 WtEn= 0.00D+00
 Coeff-Com:  0.185D-06 0.308D-06 0.105D-06 0.108D-06-0.475D-05-0.860D-05
 Coeff-Com: -0.216D-04 0.531D-06 0.962D-04 0.209D-03 0.598D-03-0.845D-03
 Coeff-Com: -0.509D-02 0.741D-03 0.125D-01 0.438D-01-0.146D+00-0.262D+00
 Coeff-Com:  0.278D+00 0.108D+01
 Coeff:      0.185D-06 0.308D-06 0.105D-06 0.108D-06-0.475D-05-0.860D-05
 Coeff:     -0.216D-04 0.531D-06 0.962D-04 0.209D-03 0.598D-03-0.845D-03
 Coeff:     -0.509D-02 0.741D-03 0.125D-01 0.438D-01-0.146D+00-0.262D+00
 Coeff:      0.278D+00 0.108D+01
 Gap=     0.137 Goal=   None    Shift=    0.000
 Gap=     0.132 Goal=   None    Shift=    0.000
 RMSDP=2.72D-07 MaxDP=5.88D-05 DE=-3.63D-10 OVMax= 3.12D-05

 Cycle  22  Pass 1  IDiag  1:
 RMSU=  2.72D-07    CP:  1.00D+00
 E= -2205.50983764544     Delta-E=       -0.000000000213 Rises=F Damp=F
 DIIS: error= 2.44D-07 at cycle  22 NSaved=  20.
 NSaved=20 IEnMin=20 EnMin= -2205.50983764544     IErMin=20 ErrMin= 2.44D-07
 ErrMax= 2.44D-07  0.00D+00 EMaxC= 1.00D-01 BMatC= 2.07D-11 BMatP= 5.38D-11
 IDIUse=1 WtCom= 1.00D+00 WtEn= 0.00D+00
 Coeff-Com:  0.160D-06 0.255D-06 0.212D-08-0.137D-05-0.242D-05-0.121D-04
 Coeff-Com: -0.478D-05 0.199D-04 0.175D-03 0.295D-03 0.280D-03-0.168D-02
 Coeff-Com: -0.523D-02-0.396D-02 0.586D-01 0.159D-01-0.273D+00-0.199D+00
 Coeff-Com:  0.555D+00 0.853D+00
 Coeff:      0.160D-06 0.255D-06 0.212D-08-0.137D-05-0.242D-05-0.121D-04
 Coeff:     -0.478D-05 0.199D-04 0.175D-03 0.295D-03 0.280D-03-0.168D-02
 Coeff:     -0.523D-02-0.396D-02 0.586D-01 0.159D-01-0.273D+00-0.199D+00
 Coeff:      0.555D+00 0.853D+00
 Gap=     0.137 Goal=   None    Shift=    0.000
 Gap=     0.132 Goal=   None    Shift=    0.000
 RMSDP=1.64D-07 MaxDP=3.32D-05 DE=-2.13D-10 OVMax= 1.70D-05

 Cycle  23  Pass 1  IDiag  1:
 RMSU=  3.61D-08    CP:  1.00D+00  1.59D+00
 E= -2205.50983764552     Delta-E=       -0.000000000075 Rises=F Damp=F
 DIIS: error= 1.39D-07 at cycle  23 NSaved=  20.
 NSaved=20 IEnMin=20 EnMin= -2205.50983764552     IErMin=20 ErrMin= 1.39D-07
 ErrMax= 1.39D-07  0.00D+00 EMaxC= 1.00D-01 BMatC= 6.80D-12 BMatP= 2.07D-11
 IDIUse=1 WtCom= 1.00D+00 WtEn= 0.00D+00
 Coeff-Com:  0.793D-07-0.102D-07 0.851D-06 0.142D-05 0.148D-05-0.252D-05
 Coeff-Com: -0.161D-04 0.197D-04-0.878D-04 0.393D-03 0.858D-03-0.282D-02
 Coeff-Com: -0.509D-02 0.154D-01 0.564D-01-0.667D-01-0.190D+00-0.406D-01
 Coeff-Com:  0.449D+00 0.783D+00
 Coeff:      0.793D-07-0.102D-07 0.851D-06 0.142D-05 0.148D-05-0.252D-05
 Coeff:     -0.161D-04 0.197D-04-0.878D-04 0.393D-03 0.858D-03-0.282D-02
 Coeff:     -0.509D-02 0.154D-01 0.564D-01-0.667D-01-0.190D+00-0.406D-01
 Coeff:      0.449D+00 0.783D+00
 Gap=     0.137 Goal=   None    Shift=    0.000
 Gap=     0.132 Goal=   None    Shift=    0.000
 RMSDP=7.77D-08 MaxDP=1.41D-05 DE=-7.46D-11 OVMax= 6.74D-06

 Cycle  24  Pass 1  IDiag  1:
 RMSU=  2.04D-08    CP:  1.00D+00  1.85D+00  1.59D+00
 E= -2205.50983764553     Delta-E=       -0.000000000015 Rises=F Damp=F
 DIIS: error= 7.07D-08 at cycle  24 NSaved=  20.
 NSaved=20 IEnMin=20 EnMin= -2205.50983764553     IErMin=20 ErrMin= 7.07D-08
 ErrMax= 7.07D-08  0.00D+00 EMaxC= 1.00D-01 BMatC= 1.35D-12 BMatP= 6.80D-12
 IDIUse=1 WtCom= 1.00D+00 WtEn= 0.00D+00
 Coeff-Com: -0.144D-07 0.551D-06 0.689D-06 0.252D-05 0.932D-06-0.511D-05
 Coeff-Com: -0.411D-04-0.845D-04 0.698D-05 0.525D-03 0.484D-03 0.669D-03
 Coeff-Com: -0.124D-01 0.943D-02 0.537D-01 0.125D-01-0.143D+00-0.135D+00
 Coeff-Com:  0.143D+00 0.107D+01
 Coeff:     -0.144D-07 0.551D-06 0.689D-06 0.252D-05 0.932D-06-0.511D-05
 Coeff:     -0.411D-04-0.845D-04 0.698D-05 0.525D-03 0.484D-03 0.669D-03
 Coeff:     -0.124D-01 0.943D-02 0.537D-01 0.125D-01-0.143D+00-0.135D+00
 Coeff:      0.143D+00 0.107D+01
 Gap=     0.137 Goal=   None    Shift=    0.000
 Gap=     0.132 Goal=   None    Shift=    0.000
 RMSDP=4.11D-08 MaxDP=8.58D-06 DE=-1.55D-11 OVMax= 3.77D-06

 Cycle  25  Pass 1  IDiag  1:
 RMSU=  1.11D-08    CP:  1.00D+00  1.97D+00  2.11D+00  1.71D+00
 E= -2205.50983764550     Delta-E=        0.000000000026 Rises=F Damp=F
 DIIS: error= 4.34D-08 at cycle  25 NSaved=  20.
 NSaved=20 IEnMin=19 EnMin= -2205.50983764553     IErMin=20 ErrMin= 4.34D-08
 ErrMax= 4.34D-08  0.00D+00 EMaxC= 1.00D-01 BMatC= 4.80D-13 BMatP= 1.35D-12
 IDIUse=1 WtCom= 1.00D+00 WtEn= 0.00D+00
 Coeff-Com: -0.272D-06-0.401D-06 0.247D-06 0.161D-05 0.298D-05-0.181D-04
 Coeff-Com:  0.401D-04-0.114D-03-0.310D-03 0.994D-03 0.208D-02-0.773D-02
 Coeff-Com: -0.197D-01 0.347D-01 0.679D-01 0.873D-03-0.193D+00-0.292D+00
 Coeff-Com:  0.220D+00 0.119D+01
 Coeff:     -0.272D-06-0.401D-06 0.247D-06 0.161D-05 0.298D-05-0.181D-04
 Coeff:      0.401D-04-0.114D-03-0.310D-03 0.994D-03 0.208D-02-0.773D-02
 Coeff:     -0.197D-01 0.347D-01 0.679D-01 0.873D-03-0.193D+00-0.292D+00
 Coeff:      0.220D+00 0.119D+01
 Gap=     0.137 Goal=   None    Shift=    0.000
 Gap=     0.132 Goal=   None    Shift=    0.000
 RMSDP=2.88D-08 MaxDP=5.75D-06 DE= 2.64D-11 OVMax= 2.92D-06

 Cycle  26  Pass 1  IDiag  1:
 RMSU=  5.83D-09    CP:  1.00D+00  2.04D+00  2.47D+00  2.33D+00  1.91D+00
 E= -2205.50983764551     Delta-E=       -0.000000000003 Rises=F Damp=F
 DIIS: error= 2.96D-08 at cycle  26 NSaved=  20.
 NSaved=20 IEnMin=18 EnMin= -2205.50983764553     IErMin=20 ErrMin= 2.96D-08
 ErrMax= 2.96D-08  0.00D+00 EMaxC= 1.00D-01 BMatC= 1.40D-13 BMatP= 4.80D-13
 IDIUse=1 WtCom= 1.00D+00 WtEn= 0.00D+00
 Coeff-Com:  0.600D-07-0.402D-06-0.780D-06-0.145D-05 0.334D-05-0.127D-04
 Coeff-Com:  0.410D-05 0.867D-04 0.768D-04-0.632D-03 0.968D-03 0.692D-03
 Coeff-Com: -0.582D-02-0.516D-02 0.238D-01 0.162D-01-0.481D-01-0.194D+00
 Coeff-Com:  0.119D+00 0.109D+01
 Coeff:      0.600D-07-0.402D-06-0.780D-06-0.145D-05 0.334D-05-0.127D-04
 Coeff:      0.410D-05 0.867D-04 0.768D-04-0.632D-03 0.968D-03 0.692D-03
 Coeff:     -0.582D-02-0.516D-02 0.238D-01 0.162D-01-0.481D-01-0.194D+00
 Coeff:      0.119D+00 0.109D+01
 Gap=     0.137 Goal=   None    Shift=    0.000
 Gap=     0.132 Goal=   None    Shift=    0.000
 RMSDP=1.11D-08 MaxDP=1.45D-06 DE=-2.73D-12 OVMax= 1.40D-06

 Cycle  27  Pass 1  IDiag  1:
 RMSU=  4.08D-09    CP:  1.00D+00  2.06D+00  2.58D+00  2.55D+00  2.28D+00
                    CP:  1.86D+00
 E= -2205.50983764552     Delta-E=       -0.000000000015 Rises=F Damp=F
 DIIS: error= 2.54D-08 at cycle  27 NSaved=  20.
 NSaved=20 IEnMin=17 EnMin= -2205.50983764553     IErMin=20 ErrMin= 2.54D-08
 ErrMax= 2.54D-08  0.00D+00 EMaxC= 1.00D-01 BMatC= 1.04D-13 BMatP= 1.40D-13
 IDIUse=1 WtCom= 1.00D+00 WtEn= 0.00D+00
 Coeff-Com: -0.391D-06-0.717D-06-0.622D-06 0.125D-04-0.881D-05 0.306D-04
 Coeff-Com:  0.596D-04-0.342D-03-0.846D-03 0.406D-02 0.609D-02-0.196D-01
 Coeff-Com: -0.262D-01 0.236D-01 0.835D-01 0.672D-01-0.234D+00-0.362D+00
 Coeff-Com:  0.741D+00 0.718D+00
 Coeff:     -0.391D-06-0.717D-06-0.622D-06 0.125D-04-0.881D-05 0.306D-04
 Coeff:      0.596D-04-0.342D-03-0.846D-03 0.406D-02 0.609D-02-0.196D-01
 Coeff:     -0.262D-01 0.236D-01 0.835D-01 0.672D-01-0.234D+00-0.362D+00
 Coeff:      0.741D+00 0.718D+00
 Gap=     0.137 Goal=   None    Shift=    0.000
 Gap=     0.132 Goal=   None    Shift=    0.000
 RMSDP=7.13D-09 MaxDP=6.57D-07 DE=-1.55D-11 OVMax= 1.12D-06

 SCF Done:  E(UwB97XD) =  -2205.50983765     A.U. after   27 cycles
            NFock= 27  Conv=0.71D-08     -V/T= 3.6226
 <Sx>= 0.0000 <Sy>= 0.0000 <Sz>= 0.5000 <S**2>= 0.7626 S= 0.5063
 <L.S>=  0.00000000000    
 KE= 8.409577011480D+02 PE=-1.521261371504D+04 EE= 6.937472442951D+03
 Annihilation of the first spin contaminant:
 S**2 before annihilation     0.7626,   after     0.7501
 Leave Link  502 at Wed Feb 26 00:50:48 2025, MaxMem=  2097152000 cpu:            6032.6 elap:            1524.9
 (Enter /nvme/h/buildsets/eb_nepheli/software/Gaussian/16.C.01-AVX2/g16/l508.exe)
 QCSCF skips out because SCF is already converged.
 Leave Link  508 at Wed Feb 26 00:50:48 2025, MaxMem=  2097152000 cpu:               0.0 elap:               0.1
 (Enter /nvme/h/buildsets/eb_nepheli/software/Gaussian/16.C.01-AVX2/g16/l601.exe)
 Copying SCF densities to generalized density rwf, IOpCl= 1 IROHF=0.

 **********************************************************************

            Population analysis using the SCF Density.

 **********************************************************************

 Orbital symmetries:
 Alpha Orbitals:
       Occupied  (A) (A) (A) (A) (A) (A) (A) (A) (A) (A) (A) (A)
                 (A) (A) (A) (A) (A) (A) (A) (A) (A) (A) (A) (A)
                 (A) (A) (A) (A) (A) (A) (A) (A) (A) (A) (A) (A)
                 (A) (A) (A) (A) (A) (A) (A) (A) (A) (A) (A) (A)
                 (A) (A) (A) (A) (A) (A) (A) (A) (A) (A) (A) (A)
                 (A) (A) (A) (A) (A) (A) (A) (A) (A) (A) (A) (A)
                 (A) (A) (A) (A) (A) (A) (A) (A) (A) (A) (A) (A)
                 (A) (A) (A) (A) (A) (A) (A) (A) (A) (A) (A) (A)
                 (A) (A) (A) (A) (A) (A) (A) (A) (A) (A) (A) (A)
                 (A) (A) (A) (A) (A) (A) (A) (A) (A) (A) (A) (A)
                 (A) (A) (A) (A) (A) (A) (A) (A) (A) (A) (A) (A)
                 (A) (A) (A) (A) (A) (A) (A) (A) (A) (A) (A)
       Virtual   (A) (A) (A) (A) (A) (A) (A) (A) (A) (A) (A) (A)
                 (A) (A) (A) (A) (A) (A) (A) (A) (A) (A) (A) (A)
                 (A) (A) (A) (A) (A) (A) (A) (A) (A) (A) (A) (A)
                 (A) (A) (A) (A) (A) (A) (A) (A) (A) (A) (A) (A)
                 (A) (A) (A) (A) (A) (A) (A) (A) (A) (A) (A) (A)
                 (A) (A) (A) (A) (A) (A) (A) (A) (A) (A) (A) (A)
                 (A) (A) (A) (A) (A) (A) (A) (A) (A) (A) (A) (A)
                 (A) (A) (A) (A) (A) (A) (A) (A) (A) (A) (A) (A)
                 (A) (A) (A) (A) (A) (A) (A) (A) (A) (A) (A) (A)
                 (A) (A) (A) (A) (A) (A) (A) (A) (A) (A) (A) (A)
                 (A) (A) (A) (A) (A) (A) (A) (A) (A) (A) (A) (A)
                 (A) (A) (A) (A) (A) (A) (A) (A) (A) (A) (A) (A)
                 (A) (A) (A) (A) (A) (A) (A) (A) (A) (A) (A) (A)
                 (A) (A) (A) (A) (A) (A) (A) (A) (A) (A) (A) (A)
                 (A) (A) (A) (A) (A) (A) (A) (A) (A) (A) (A) (A)
                 (A) (A) (A) (A) (A) (A) (A) (A) (A) (A) (A) (A)
                 (A) (A) (A) (A) (A) (A) (A) (A) (A) (A) (A) (A)
                 (A) (A) (A) (A) (A) (A) (A) (A) (A) (A) (A) (A)
                 (A) (A) (A) (A) (A) (A) (A) (A) (A) (A) (A) (A)
                 (A) (A) (A) (A) (A) (A) (A) (A) (A) (A) (A) (A)
                 (A) (A) (A) (A) (A) (A) (A) (A) (A) (A) (A) (A)
                 (A) (A) (A) (A) (A) (A) (A) (A) (A) (A) (A) (A)
                 (A) (A) (A) (A) (A) (A) (A) (A) (A) (A) (A) (A)
                 (A) (A) (A) (A) (A) (A) (A) (A) (A) (A) (A) (A)
                 (A) (A) (A) (A) (A) (A) (A) (A) (A) (A) (A) (A)
                 (A) (A) (A) (A) (A) (A) (A) (A) (A) (A) (A) (A)
                 (A) (A) (A) (A) (A) (A) (A) (A) (A) (A)
 Beta  Orbitals:
       Occupied  (A) (A) (A) (A) (A) (A) (A) (A) (A) (A) (A) (A)
                 (A) (A) (A) (A) (A) (A) (A) (A) (A) (A) (A) (A)
                 (A) (A) (A) (A) (A) (A) (A) (A) (A) (A) (A) (A)
                 (A) (A) (A) (A) (A) (A) (A) (A) (A) (A) (A) (A)
                 (A) (A) (A) (A) (A) (A) (A) (A) (A) (A) (A) (A)
                 (A) (A) (A) (A) (A) (A) (A) (A) (A) (A) (A) (A)
                 (A) (A) (A) (A) (A) (A) (A) (A) (A) (A) (A) (A)
                 (A) (A) (A) (A) (A) (A) (A) (A) (A) (A) (A) (A)
                 (A) (A) (A) (A) (A) (A) (A) (A) (A) (A) (A) (A)
                 (A) (A) (A) (A) (A) (A) (A) (A) (A) (A) (A) (A)
                 (A) (A) (A) (A) (A) (A) (A) (A) (A) (A) (A) (A)
                 (A) (A) (A) (A) (A) (A) (A) (A) (A) (A)
       Virtual   (A) (A) (A) (A) (A) (A) (A) (A) (A) (A) (A) (A)
                 (A) (A) (A) (A) (A) (A) (A) (A) (A) (A) (A) (A)
                 (A) (A) (A) (A) (A) (A) (A) (A) (A) (A) (A) (A)
                 (A) (A) (A) (A) (A) (A) (A) (A) (A) (A) (A) (A)
                 (A) (A) (A) (A) (A) (A) (A) (A) (A) (A) (A) (A)
                 (A) (A) (A) (A) (A) (A) (A) (A) (A) (A) (A) (A)
                 (A) (A) (A) (A) (A) (A) (A) (A) (A) (A) (A) (A)
                 (A) (A) (A) (A) (A) (A) (A) (A) (A) (A) (A) (A)
                 (A) (A) (A) (A) (A) (A) (A) (A) (A) (A) (A) (A)
                 (A) (A) (A) (A) (A) (A) (A) (A) (A) (A) (A) (A)
                 (A) (A) (A) (A) (A) (A) (A) (A) (A) (A) (A) (A)
                 (A) (A) (A) (A) (A) (A) (A) (A) (A) (A) (A) (A)
                 (A) (A) (A) (A) (A) (A) (A) (A) (A) (A) (A) (A)
                 (A) (A) (A) (A) (A) (A) (A) (A) (A) (A) (A) (A)
                 (A) (A) (A) (A) (A) (A) (A) (A) (A) (A) (A) (A)
                 (A) (A) (A) (A) (A) (A) (A) (A) (A) (A) (A) (A)
                 (A) (A) (A) (A) (A) (A) (A) (A) (A) (A) (A) (A)
                 (A) (A) (A) (A) (A) (A) (A) (A) (A) (A) (A) (A)
                 (A) (A) (A) (A) (A) (A) (A) (A) (A) (A) (A) (A)
                 (A) (A) (A) (A) (A) (A) (A) (A) (A) (A) (A) (A)
                 (A) (A) (A) (A) (A) (A) (A) (A) (A) (A) (A) (A)
                 (A) (A) (A) (A) (A) (A) (A) (A) (A) (A) (A) (A)
                 (A) (A) (A) (A) (A) (A) (A) (A) (A) (A) (A) (A)
                 (A) (A) (A) (A) (A) (A) (A) (A) (A) (A) (A) (A)
                 (A) (A) (A) (A) (A) (A) (A) (A) (A) (A) (A) (A)
                 (A) (A) (A) (A) (A) (A) (A) (A) (A) (A) (A) (A)
                 (A) (A) (A) (A) (A) (A) (A) (A) (A) (A) (A)
 The electronic state is 2-A.
 Alpha  occ. eigenvalues --   -3.87528  -3.85199  -3.85199  -3.85197  -3.85197
 Alpha  occ. eigenvalues --   -3.84836  -3.84835  -3.84792  -3.84792  -3.84175
 Alpha  occ. eigenvalues --   -3.84175  -3.84083  -3.84082  -3.83570  -3.83556
 Alpha  occ. eigenvalues --   -2.45825  -2.45760  -2.45390  -2.43503  -2.43502
 Alpha  occ. eigenvalues --   -2.43489  -2.43488  -2.43383  -2.43382  -2.43337
 Alpha  occ. eigenvalues --   -2.43334  -2.43210  -2.43209  -2.43204  -2.43203
 Alpha  occ. eigenvalues --   -2.43124  -2.43123  -2.42996  -2.42991  -2.42970
 Alpha  occ. eigenvalues --   -2.42969  -2.42954  -2.42954  -2.42894  -2.42891
 Alpha  occ. eigenvalues --   -2.42849  -2.42845  -2.42392  -2.42391  -2.42288
 Alpha  occ. eigenvalues --   -2.42280  -2.42279  -2.42274  -2.42225  -2.42224
 Alpha  occ. eigenvalues --   -2.42144  -2.42134  -2.42134  -2.42124  -2.41833
 Alpha  occ. eigenvalues --   -2.41795  -2.41780  -2.41615  -2.41612  -2.41607
 Alpha  occ. eigenvalues --   -0.49140  -0.48935  -0.48764  -0.48599  -0.48585
 Alpha  occ. eigenvalues --   -0.47934  -0.46158  -0.45819  -0.45722  -0.45558
 Alpha  occ. eigenvalues --   -0.45436  -0.45316  -0.45199  -0.44927  -0.44885
 Alpha  occ. eigenvalues --   -0.44854  -0.44852  -0.44657  -0.44596  -0.44502
 Alpha  occ. eigenvalues --   -0.44482  -0.44351  -0.44159  -0.44030  -0.44001
 Alpha  occ. eigenvalues --   -0.43900  -0.43762  -0.43578  -0.43576  -0.43542
 Alpha  occ. eigenvalues --   -0.43346  -0.43277  -0.43103  -0.42873  -0.42636
 Alpha  occ. eigenvalues --   -0.42565  -0.42476  -0.42275  -0.42202  -0.41786
 Alpha  occ. eigenvalues --   -0.41505  -0.41491  -0.41247  -0.41107  -0.40915
 Alpha  occ. eigenvalues --   -0.40765  -0.40703  -0.40500  -0.40466  -0.40459
 Alpha  occ. eigenvalues --   -0.40131  -0.40118  -0.40111  -0.40085  -0.39844
 Alpha  occ. eigenvalues --   -0.39787  -0.39771  -0.39746  -0.39730  -0.39699
 Alpha  occ. eigenvalues --   -0.39472  -0.39432  -0.39425  -0.39343  -0.39243
 Alpha  occ. eigenvalues --   -0.39149  -0.39027  -0.39013  -0.38984  -0.38771
 Alpha  occ. eigenvalues --   -0.38468  -0.38337  -0.38162  -0.38006  -0.37833
 Alpha  occ. eigenvalues --   -0.37819  -0.34885  -0.31762  -0.31111  -0.24495
 Alpha  occ. eigenvalues --   -0.22162  -0.20730  -0.20033
 Alpha virt. eigenvalues --   -0.06358  -0.04998  -0.03859  -0.03317  -0.01857
 Alpha virt. eigenvalues --   -0.01072  -0.00068   0.01029   0.01256   0.01722
 Alpha virt. eigenvalues --    0.02929   0.03660   0.03903   0.04758   0.05664
 Alpha virt. eigenvalues --    0.06079   0.07893   0.08322   0.08484   0.10066
 Alpha virt. eigenvalues --    0.10515   0.10753   0.11421   0.11694   0.11728
 Alpha virt. eigenvalues --    0.12231   0.12322   0.12360   0.12672   0.13703
 Alpha virt. eigenvalues --    0.14571   0.14616   0.14809   0.14974   0.15447
 Alpha virt. eigenvalues --    0.15961   0.15987   0.16254   0.16625   0.16863
 Alpha virt. eigenvalues --    0.17648   0.17811   0.18228   0.18668   0.19415
 Alpha virt. eigenvalues --    0.19842   0.19938   0.19977   0.21100   0.22817
 Alpha virt. eigenvalues --    0.22874   0.22972   0.25621   0.26024   0.26069
 Alpha virt. eigenvalues --    0.27468   0.27485   0.28031   0.28351   0.28826
 Alpha virt. eigenvalues --    0.29114   0.30159   0.30462   0.30890   0.30914
 Alpha virt. eigenvalues --    0.31246   0.31977   0.32088   0.32326   0.32957
 Alpha virt. eigenvalues --    0.33157   0.34239   0.34397   0.35026   0.35496
 Alpha virt. eigenvalues --    0.36547   0.36836   0.37643   0.38232   0.38446
 Alpha virt. eigenvalues --    0.38766   0.39301   0.39520   0.40484   0.40665
 Alpha virt. eigenvalues --    0.41488   0.43162   0.43477   0.43931   0.44044
 Alpha virt. eigenvalues --    0.46503   0.46862   0.47241   0.47687   0.48022
 Alpha virt. eigenvalues --    0.49194   0.49490   0.50564   0.51470   0.52472
 Alpha virt. eigenvalues --    0.53027   0.53201   0.53972   0.55562   0.56689
 Alpha virt. eigenvalues --    0.57384   0.58368   0.59427   0.59590   0.60661
 Alpha virt. eigenvalues --    0.62331   0.63034   0.64251   0.64414   0.64428
 Alpha virt. eigenvalues --    0.65343   0.65463   0.65510   0.66321   0.66534
 Alpha virt. eigenvalues --    0.66598   0.67531   0.68891   0.69715   0.70034
 Alpha virt. eigenvalues --    0.70707   0.70970   0.71634   0.72255   0.73138
 Alpha virt. eigenvalues --    0.73547   0.74623   0.74809   0.75613   0.75913
 Alpha virt. eigenvalues --    0.76185   0.76413   0.77433   0.77759   0.77780
 Alpha virt. eigenvalues --    0.78832   0.79361   0.79836   0.79981   0.81243
 Alpha virt. eigenvalues --    0.81608   0.81752   0.81793   0.83499   0.83932
 Alpha virt. eigenvalues --    0.84081   0.84255   0.84368   0.86070   0.86132
 Alpha virt. eigenvalues --    0.86338   0.86931   0.87407   0.89052   0.89072
 Alpha virt. eigenvalues --    0.90975   0.91078   0.91927   0.92778   0.93225
 Alpha virt. eigenvalues --    0.95490   0.95728   0.95763   0.99369   0.99604
 Alpha virt. eigenvalues --    1.00105   1.01049   1.03844   1.03908   1.04494
 Alpha virt. eigenvalues --    1.05961   1.06798   1.06982   1.07757   1.09189
 Alpha virt. eigenvalues --    1.12418   1.14914   1.15007   1.20561   1.22233
 Alpha virt. eigenvalues --    1.31250   1.36446   2.17846   2.28356   2.34191
 Alpha virt. eigenvalues --    2.35013   2.35016   2.36052   2.36770   2.39860
 Alpha virt. eigenvalues --    2.41634   2.42714   2.44211   2.47743   2.48200
 Alpha virt. eigenvalues --    2.50603   2.57574   2.65363   2.65603   2.65661
 Alpha virt. eigenvalues --    2.65818   2.66691   2.66821   2.66853   2.66911
 Alpha virt. eigenvalues --    2.66926   2.67012   2.67106   2.67175   2.67195
 Alpha virt. eigenvalues --    2.67196   2.67219   2.67234   2.67258   2.67260
 Alpha virt. eigenvalues --    2.67349   2.67366   2.67376   2.67453   2.67457
 Alpha virt. eigenvalues --    2.67460   2.67488   2.67518   2.67582   2.67590
 Alpha virt. eigenvalues --    2.67696   2.67728   2.67752   2.67816   2.67818
 Alpha virt. eigenvalues --    2.67861   2.67894   2.67918   2.67968   2.67993
 Alpha virt. eigenvalues --    2.68042   2.68070   2.68074   2.68085   2.68151
 Alpha virt. eigenvalues --    2.68188   2.68331   2.68336   2.68342   2.68391
 Alpha virt. eigenvalues --    2.68414   2.68502   2.68518   2.68528   2.68582
 Alpha virt. eigenvalues --    2.68600   2.68649   2.68727   2.68742   2.68789
 Alpha virt. eigenvalues --    2.68837   2.68840   2.68902   2.68926   2.68994
 Alpha virt. eigenvalues --    2.69048   2.69108   2.69117   2.69209   2.69299
 Alpha virt. eigenvalues --    2.69330   2.69363   2.69364   2.69396   2.69543
 Alpha virt. eigenvalues --    2.69566   2.69585   2.69587   2.69611   2.69811
 Alpha virt. eigenvalues --    2.69883   2.69980   2.70029   2.70031   2.70098
 Alpha virt. eigenvalues --    2.70450   2.70517   2.70591   2.70718   2.70738
 Alpha virt. eigenvalues --    2.70852   2.71096   2.71162   2.71355   2.71595
 Alpha virt. eigenvalues --    2.71621   2.71664   2.72003   2.72066   2.72120
 Alpha virt. eigenvalues --    2.72611   2.73214   2.73650   2.74796   2.76478
 Alpha virt. eigenvalues --    2.76608   2.96345  54.34901  54.41389  54.45726
 Alpha virt. eigenvalues --   54.46122  54.46393  54.47227  54.47379  54.49723
 Alpha virt. eigenvalues --   54.51281  54.51559  54.54956  54.55889  54.57863
 Alpha virt. eigenvalues --   54.60142  54.80276
  Beta  occ. eigenvalues --   -3.87347  -3.85118  -3.85118  -3.85116  -3.85115
  Beta  occ. eigenvalues --   -3.84834  -3.84834  -3.84787  -3.84787  -3.84169
  Beta  occ. eigenvalues --   -3.84169  -3.84074  -3.84074  -3.83564  -3.83550
  Beta  occ. eigenvalues --   -2.45570  -2.45506  -2.45304  -2.43452  -2.43447
  Beta  occ. eigenvalues --   -2.43435  -2.43434  -2.43326  -2.43324  -2.43274
  Beta  occ. eigenvalues --   -2.43273  -2.43156  -2.43155  -2.43138  -2.43132
  Beta  occ. eigenvalues --   -2.43116  -2.43107  -2.43004  -2.43000  -2.42969
  Beta  occ. eigenvalues --   -2.42967  -2.42949  -2.42949  -2.42880  -2.42877
  Beta  occ. eigenvalues --   -2.42829  -2.42826  -2.42385  -2.42383  -2.42283
  Beta  occ. eigenvalues --   -2.42282  -2.42275  -2.42260  -2.42208  -2.42207
  Beta  occ. eigenvalues --   -2.42150  -2.42130  -2.42113  -2.42112  -2.41832
  Beta  occ. eigenvalues --   -2.41786  -2.41769  -2.41610  -2.41602  -2.41594
  Beta  occ. eigenvalues --   -0.48867  -0.48816  -0.48709  -0.48547  -0.48528
  Beta  occ. eigenvalues --   -0.47925  -0.46142  -0.45779  -0.45648  -0.45524
  Beta  occ. eigenvalues --   -0.45361  -0.45240  -0.45164  -0.44850  -0.44816
  Beta  occ. eigenvalues --   -0.44804  -0.44775  -0.44582  -0.44507  -0.44461
  Beta  occ. eigenvalues --   -0.44381  -0.44249  -0.44097  -0.43963  -0.43938
  Beta  occ. eigenvalues --   -0.43847  -0.43718  -0.43513  -0.43482  -0.43474
  Beta  occ. eigenvalues --   -0.43323  -0.43205  -0.43003  -0.42798  -0.42565
  Beta  occ. eigenvalues --   -0.42503  -0.42364  -0.42238  -0.42137  -0.41754
  Beta  occ. eigenvalues --   -0.41471  -0.41418  -0.41157  -0.41080  -0.40838
  Beta  occ. eigenvalues --   -0.40722  -0.40594  -0.40495  -0.40449  -0.40380
  Beta  occ. eigenvalues --   -0.40102  -0.40090  -0.40075  -0.40037  -0.39833
  Beta  occ. eigenvalues --   -0.39764  -0.39744  -0.39700  -0.39672  -0.39544
  Beta  occ. eigenvalues --   -0.39466  -0.39379  -0.39339  -0.39289  -0.39222
  Beta  occ. eigenvalues --   -0.39128  -0.39018  -0.38939  -0.38927  -0.38745
  Beta  occ. eigenvalues --   -0.38366  -0.38324  -0.38155  -0.38004  -0.37788
  Beta  occ. eigenvalues --   -0.37721  -0.34790  -0.30672  -0.29904  -0.24420
  Beta  occ. eigenvalues --   -0.22010  -0.20434
  Beta virt. eigenvalues --   -0.07232  -0.06452  -0.04519  -0.03702  -0.03309
  Beta virt. eigenvalues --   -0.01844  -0.00159  -0.00035   0.01183   0.02237
  Beta virt. eigenvalues --    0.02464   0.03418   0.03597   0.03898   0.04782
  Beta virt. eigenvalues --    0.05737   0.06091   0.08167   0.08409   0.08487
  Beta virt. eigenvalues --    0.10392   0.10468   0.10747   0.11280   0.11453
  Beta virt. eigenvalues --    0.11755   0.12184   0.12200   0.12381   0.12678
  Beta virt. eigenvalues --    0.13673   0.14565   0.14773   0.14935   0.14998
  Beta virt. eigenvalues --    0.15489   0.15930   0.16107   0.16167   0.16633
  Beta virt. eigenvalues --    0.16926   0.17677   0.17774   0.17966   0.18528
  Beta virt. eigenvalues --    0.19076   0.19715   0.19760   0.19892   0.21040
  Beta virt. eigenvalues --    0.22644   0.22647   0.22877   0.25554   0.25707
  Beta virt. eigenvalues --    0.25978   0.27379   0.27427   0.27980   0.28336
  Beta virt. eigenvalues --    0.28791   0.29038   0.30175   0.30841   0.30844
  Beta virt. eigenvalues --    0.30872   0.31263   0.32077   0.32096   0.32308
  Beta virt. eigenvalues --    0.32938   0.33122   0.34164   0.34380   0.35073
  Beta virt. eigenvalues --    0.35455   0.36569   0.36855   0.37623   0.38308
  Beta virt. eigenvalues --    0.38401   0.38697   0.39340   0.39492   0.40484
  Beta virt. eigenvalues --    0.40695   0.41644   0.43297   0.43569   0.44027
  Beta virt. eigenvalues --    0.44120   0.46576   0.46942   0.47328   0.47730
  Beta virt. eigenvalues --    0.48031   0.49226   0.49563   0.50556   0.51450
  Beta virt. eigenvalues --    0.52593   0.53079   0.53195   0.54027   0.55579
  Beta virt. eigenvalues --    0.56730   0.57403   0.58349   0.59428   0.59619
  Beta virt. eigenvalues --    0.60662   0.62368   0.63151   0.64315   0.64410
  Beta virt. eigenvalues --    0.64466   0.65365   0.65525   0.65550   0.66333
  Beta virt. eigenvalues --    0.66593   0.66648   0.67590   0.68930   0.69740
  Beta virt. eigenvalues --    0.70171   0.70778   0.71025   0.71641   0.72320
  Beta virt. eigenvalues --    0.73174   0.73648   0.74688   0.74807   0.75634
  Beta virt. eigenvalues --    0.75952   0.76226   0.76439   0.77491   0.77800
  Beta virt. eigenvalues --    0.77831   0.78878   0.79405   0.79896   0.80000
  Beta virt. eigenvalues --    0.81312   0.81669   0.81827   0.81842   0.83501
  Beta virt. eigenvalues --    0.83945   0.84145   0.84312   0.84392   0.86117
  Beta virt. eigenvalues --    0.86192   0.86368   0.86960   0.87459   0.89057
  Beta virt. eigenvalues --    0.89123   0.91013   0.91093   0.91972   0.92821
  Beta virt. eigenvalues --    0.93249   0.95502   0.95728   0.95783   0.99431
  Beta virt. eigenvalues --    0.99620   1.00096   1.01073   1.03858   1.03923
  Beta virt. eigenvalues --    1.04570   1.05984   1.06829   1.06962   1.07815
  Beta virt. eigenvalues --    1.09191   1.12434   1.14998   1.15019   1.20564
  Beta virt. eigenvalues --    1.22249   1.31258   1.36413   2.17899   2.28363
  Beta virt. eigenvalues --    2.34240   2.35015   2.35131   2.36066   2.36768
  Beta virt. eigenvalues --    2.39919   2.41760   2.42861   2.44216   2.47760
  Beta virt. eigenvalues --    2.48241   2.50607   2.57616   2.65575   2.65747
  Beta virt. eigenvalues --    2.65811   2.65905   2.66770   2.66865   2.66915
  Beta virt. eigenvalues --    2.66977   2.66997   2.67068   2.67142   2.67209
  Beta virt. eigenvalues --    2.67231   2.67238   2.67271   2.67271   2.67282
  Beta virt. eigenvalues --    2.67305   2.67389   2.67389   2.67394   2.67471
  Beta virt. eigenvalues --    2.67491   2.67493   2.67528   2.67536   2.67597
  Beta virt. eigenvalues --    2.67601   2.67707   2.67737   2.67768   2.67812
  Beta virt. eigenvalues --    2.67822   2.67898   2.67901   2.67942   2.67976
  Beta virt. eigenvalues --    2.68010   2.68053   2.68079   2.68084   2.68095
  Beta virt. eigenvalues --    2.68170   2.68196   2.68337   2.68345   2.68357
  Beta virt. eigenvalues --    2.68410   2.68421   2.68510   2.68536   2.68548
  Beta virt. eigenvalues --    2.68601   2.68614   2.68662   2.68746   2.68758
  Beta virt. eigenvalues --    2.68802   2.68859   2.68861   2.68909   2.68949
  Beta virt. eigenvalues --    2.68998   2.69072   2.69123   2.69139   2.69223
  Beta virt. eigenvalues --    2.69329   2.69352   2.69370   2.69374   2.69441
  Beta virt. eigenvalues --    2.69562   2.69580   2.69597   2.69613   2.69620
  Beta virt. eigenvalues --    2.69821   2.69899   2.69988   2.70038   2.70041
  Beta virt. eigenvalues --    2.70117   2.70461   2.70527   2.70603   2.70725
  Beta virt. eigenvalues --    2.70745   2.70865   2.71102   2.71168   2.71363
  Beta virt. eigenvalues --    2.71621   2.71634   2.71687   2.72044   2.72075
  Beta virt. eigenvalues --    2.72139   2.72670   2.73279   2.73659   2.74807
  Beta virt. eigenvalues --    2.76485   2.76638   2.96398  54.34893  54.41388
  Beta virt. eigenvalues --   54.45682  54.46125  54.46398  54.47228  54.47384
  Beta virt. eigenvalues --   54.49714  54.51248  54.51515  54.54961  54.55886
  Beta virt. eigenvalues --   54.57864  54.60147  54.80226
          Condensed to atoms (all electrons):
               1          2          3          4          5          6
     1  Ag  18.705543   0.038804   0.038783  -0.129881   0.006817  -0.052551
     2  Ag   0.038804  18.397797   0.013325  -0.019125  -0.013182  -0.049060
     3  Ag   0.038783   0.013325  18.397798  -0.019119  -0.005230   0.066063
     4  Ag  -0.129881  -0.019125  -0.019119  19.464309  -0.012975  -0.089328
     5  Ag   0.006817  -0.013182  -0.005230  -0.012975  18.308203  -0.037247
     6  Ag  -0.052551  -0.049060   0.066063  -0.089328  -0.037247  18.856121
     7  Ag   0.034526   0.066053  -0.049062   0.139558   0.025772  -0.064859
     8  Ag  -0.052560   0.065973  -0.049074  -0.089317   0.025783  -0.166560
     9  Ag  -0.044526   0.038787   0.038808  -0.005071   0.006819   0.034525
    10  Ag  -0.025079  -0.082100   0.029740   0.149903   0.129360  -0.065933
    11  Ag   0.034557  -0.049076   0.065963   0.139608  -0.037249  -0.091478
    12  Ag   0.006819  -0.005230  -0.013183  -0.012972   0.006389   0.025776
    13  Ag   0.198113   0.047597   0.047596  -0.410742   0.087001  -0.111952
    14  Ag  -0.005071  -0.019117  -0.019124   0.042867  -0.012973   0.139549
    15  Ag  -0.025082   0.029740  -0.082101   0.149826  -0.039173   0.012934
               7          8          9         10         11         12
     1  Ag   0.034526  -0.052560  -0.044526  -0.025079   0.034557   0.006819
     2  Ag   0.066053   0.065973   0.038787  -0.082100  -0.049076  -0.005230
     3  Ag  -0.049062  -0.049074   0.038808   0.029740   0.065963  -0.013183
     4  Ag   0.139558  -0.089317  -0.005071   0.149903   0.139608  -0.012972
     5  Ag   0.025772   0.025783   0.006819   0.129360  -0.037249   0.006389
     6  Ag  -0.064859  -0.166560   0.034525  -0.065933  -0.091478   0.025776
     7  Ag  18.856093  -0.091478  -0.052551   0.012923  -0.166522  -0.037245
     8  Ag  -0.091478  18.856163   0.034556   0.012893  -0.064833  -0.037251
     9  Ag  -0.052551   0.034556  18.705547  -0.025080  -0.052560   0.006817
    10  Ag   0.012923   0.012893  -0.025080  19.461158  -0.065989  -0.039174
    11  Ag  -0.166522  -0.064833  -0.052560  -0.065989  18.856134   0.025779
    12  Ag  -0.037245  -0.037251   0.006817  -0.039174   0.025779  18.308203
    13  Ag  -0.111964  -0.111826   0.198107  -0.209032  -0.111839   0.087000
    14  Ag  -0.089326   0.139598  -0.129886   0.149833  -0.089314  -0.012976
    15  Ag  -0.065935  -0.065988  -0.025077  -0.420751   0.012881   0.129360
              13         14         15
     1  Ag   0.198113  -0.005071  -0.025082
     2  Ag   0.047597  -0.019117   0.029740
     3  Ag   0.047596  -0.019124  -0.082101
     4  Ag  -0.410742   0.042867   0.149826
     5  Ag   0.087001  -0.012973  -0.039173
     6  Ag  -0.111952   0.139549   0.012934
     7  Ag  -0.111964  -0.089326  -0.065935
     8  Ag  -0.111826   0.139598  -0.065988
     9  Ag   0.198107  -0.129886  -0.025077
    10  Ag  -0.209032   0.149833  -0.420751
    11  Ag  -0.111839  -0.089314   0.012881
    12  Ag   0.087000  -0.012976   0.129360
    13  Ag  24.520119  -0.410730  -0.209033
    14  Ag  -0.410730  19.464308   0.149911
    15  Ag  -0.209033   0.149911  19.461160
          Atomic-Atomic Spin Densities.
               1          2          3          4          5          6
     1  Ag   0.000270   0.007187   0.007181  -0.006002  -0.000213   0.006229
     2  Ag   0.007187   0.003347  -0.000409  -0.001290   0.000168  -0.000232
     3  Ag   0.007181  -0.000409   0.003347  -0.001288   0.000405   0.011892
     4  Ag  -0.006002  -0.001290  -0.001288   0.040679  -0.001674  -0.003880
     5  Ag  -0.000213   0.000168   0.000405  -0.001674   0.002747  -0.000919
     6  Ag   0.006229  -0.000232   0.011892  -0.003880  -0.000919   0.337218
     7  Ag   0.000723   0.011890  -0.000230   0.017505   0.002246   0.062228
     8  Ag   0.006226   0.011834  -0.000274  -0.003863   0.002247  -0.157004
     9  Ag  -0.002628   0.007181   0.007186   0.005441  -0.000212   0.000722
    10  Ag   0.000468  -0.001041   0.001967  -0.000535   0.009650   0.005712
    11  Ag   0.000725  -0.000273   0.011831   0.017544  -0.000924  -0.091111
    12  Ag  -0.000212   0.000405   0.000168  -0.001671  -0.007163   0.002248
    13  Ag   0.001144  -0.004829  -0.004829  -0.005873  -0.005064   0.042509
    14  Ag   0.005440  -0.001288  -0.001290  -0.020733  -0.001670   0.017507
    15  Ag   0.000473   0.001967  -0.001041  -0.000554  -0.011566   0.005776
               7          8          9         10         11         12
     1  Ag   0.000723   0.006226  -0.002628   0.000468   0.000725  -0.000212
     2  Ag   0.011890   0.011834   0.007181  -0.001041  -0.000273   0.000405
     3  Ag  -0.000230  -0.000274   0.007186   0.001967   0.011831   0.000168
     4  Ag   0.017505  -0.003863   0.005441  -0.000535   0.017544  -0.001671
     5  Ag   0.002246   0.002247  -0.000212   0.009650  -0.000924  -0.007163
     6  Ag   0.062228  -0.157004   0.000722   0.005712  -0.091111   0.002248
     7  Ag   0.337178  -0.091110   0.006229   0.005775  -0.156979  -0.000918
     8  Ag  -0.091110   0.337346   0.000727   0.005728   0.062214  -0.000926
     9  Ag   0.006229   0.000727   0.000272   0.000473   0.006227  -0.000213
    10  Ag   0.005775   0.005728   0.000473   0.050027   0.005649  -0.011566
    11  Ag  -0.156979   0.062214   0.006227   0.005649   0.337311   0.002245
    12  Ag  -0.000918  -0.000926  -0.000213  -0.011566   0.002245   0.002747
    13  Ag   0.042519   0.042571   0.001141  -0.004601   0.042579  -0.005064
    14  Ag  -0.003879   0.017541  -0.006003  -0.000554  -0.003865  -0.001674
    15  Ag   0.005718   0.005642   0.000467  -0.017783   0.005726   0.009650
              13         14         15
     1  Ag   0.001144   0.005440   0.000473
     2  Ag  -0.004829  -0.001288   0.001967
     3  Ag  -0.004829  -0.001290  -0.001041
     4  Ag  -0.005873  -0.020733  -0.000554
     5  Ag  -0.005064  -0.001670  -0.011566
     6  Ag   0.042509   0.017507   0.005776
     7  Ag   0.042519  -0.003879   0.005718
     8  Ag   0.042571   0.017541   0.005642
     9  Ag   0.001141  -0.006003   0.000467
    10  Ag  -0.004601  -0.000554  -0.017783
    11  Ag   0.042579  -0.003865   0.005726
    12  Ag  -0.005064  -0.001674   0.009650
    13  Ag  -0.353024  -0.005875  -0.004601
    14  Ag  -0.005875   0.040681  -0.000535
    15  Ag  -0.004601  -0.000535   0.050028
 Mulliken charges and spin densities:
               1          2
     1  Ag   0.270788   0.027010
     2  Ag   0.538815   0.034616
     3  Ag   0.538815   0.034615
     4  Ag  -0.297539   0.033806
     5  Ag   0.561887  -0.011943
     6  Ag   0.594000   0.238896
     7  Ag   0.594016   0.238894
     8  Ag   0.593921   0.238900
     9  Ag   0.270786   0.027010
    10  Ag  -0.012674   0.049368
    11  Ag   0.593937   0.238899
    12  Ag   0.561888  -0.011943
    13  Ag  -4.498417  -0.221299
    14  Ag  -0.297550   0.033804
    15  Ag  -0.012673   0.049367
 Sum of Mulliken charges =  -0.00000   1.00000
 Mulliken charges and spin densities with hydrogens summed into heavy atoms:
               1          2
     1  Ag   0.270788   0.027010
     2  Ag   0.538815   0.034616
     3  Ag   0.538815   0.034615
     4  Ag  -0.297539   0.033806
     5  Ag   0.561887  -0.011943
     6  Ag   0.594000   0.238896
     7  Ag   0.594016   0.238894
     8  Ag   0.593921   0.238900
     9  Ag   0.270786   0.027010
    10  Ag  -0.012674   0.049368
    11  Ag   0.593937   0.238899
    12  Ag   0.561888  -0.011943
    13  Ag  -4.498417  -0.221299
    14  Ag  -0.297550   0.033804
    15  Ag  -0.012673   0.049367
 Electronic spatial extent (au):  <R**2>=           9859.0149
 Charge=             -0.0000 electrons
 Dipole moment (field-independent basis, Debye):
    X=              1.0425    Y=             -0.0000    Z=             -0.0000  Tot=              1.0425
 Quadrupole moment (field-independent basis, Debye-Ang):
   XX=           -292.0107   YY=           -288.0874   ZZ=           -291.7208
   XY=              0.0000   XZ=              0.0001   YZ=             -0.0093
 Traceless Quadrupole moment (field-independent basis, Debye-Ang):
   XX=             -1.4044   YY=              2.5189   ZZ=             -1.1145
   XY=              0.0000   XZ=              0.0001   YZ=             -0.0093
 Octapole moment (field-independent basis, Debye-Ang**2):
  XXX=            -33.7835  YYY=              0.0000  ZZZ=             -0.0007  XYY=             11.9939
  XXY=              0.0000  XXZ=             -0.0003  XZZ=             15.5011  YZZ=              0.0000
  YYZ=             -0.0004  XYZ=              0.0102
 Hexadecapole moment (field-independent basis, Debye-Ang**3):
 XXXX=          -8295.8067 YYYY=          -4205.2465 ZZZZ=          -4167.0994 XXXY=              0.0003
 XXXZ=              0.0013 YYYX=              0.0002 YYYZ=             -0.2912 ZZZX=              0.0003
 ZZZY=              0.2955 XXYY=          -2113.1732 XXZZ=          -2204.8013 YYZZ=          -1433.1384
 XXYZ=             -0.2566 YYXZ=              0.0000 ZZXY=              0.0003
 N-N= 5.228673733292D+03 E-N=-1.521261371511D+04  KE= 8.409577011480D+02
                          Isotropic Fermi Contact Couplings
        Atom                 a.u.       MegaHertz       Gauss      10(-4) cm-1
     1  Ag(107            -0.00000       0.00055       0.00020       0.00018
     2  Ag(107            -0.00001       0.00115       0.00041       0.00038
     3  Ag(107            -0.00001       0.00115       0.00041       0.00038
     4  Ag(107            -0.00000       0.00087       0.00031       0.00029
     5  Ag(107            -0.00000       0.00071       0.00025       0.00024
     6  Ag(107             0.00008      -0.01368      -0.00488      -0.00456
     7  Ag(107             0.00008      -0.01368      -0.00488      -0.00456
     8  Ag(107             0.00008      -0.01368      -0.00488      -0.00456
     9  Ag(107            -0.00000       0.00055       0.00020       0.00018
    10  Ag(107            -0.00000       0.00031       0.00011       0.00010
    11  Ag(107             0.00008      -0.01368      -0.00488      -0.00456
    12  Ag(107            -0.00000       0.00071       0.00025       0.00024
    13  Ag(107            -0.00001       0.00110       0.00039       0.00037
    14  Ag(107            -0.00000       0.00087       0.00031       0.00029
    15  Ag(107            -0.00000       0.00031       0.00011       0.00010
 --------------------------------------------------------
       Center         ----  Spin Dipole Couplings  ----
                      3XX-RR        3YY-RR        3ZZ-RR
 --------------------------------------------------------
     1   Atom       -0.000851      0.006339     -0.005488
     2   Atom       -0.002136     -0.006334      0.008470
     3   Atom       -0.002136     -0.006334      0.008470
     4   Atom       -0.002021      0.007390     -0.005369
     5   Atom        0.001453     -0.002427      0.000973
     6   Atom        0.016146     -0.010208     -0.005937
     7   Atom        0.016145     -0.010208     -0.005937
     8   Atom        0.016150     -0.010244     -0.005905
     9   Atom       -0.000851      0.006339     -0.005488
    10   Atom       -0.003261     -0.007737      0.010998
    11   Atom        0.016149     -0.010244     -0.005905
    12   Atom        0.001453     -0.002427      0.000973
    13   Atom       -0.032186      0.017148      0.015037
    14   Atom       -0.002021      0.007390     -0.005369
    15   Atom       -0.003261     -0.007737      0.010998
 --------------------------------------------------------
                        XY            XZ            YZ
 --------------------------------------------------------
     1   Atom        0.000005      0.001314     -0.000030
     2   Atom       -0.000553      0.000002      0.000040
     3   Atom        0.000553     -0.000002      0.000040
     4   Atom       -0.000006     -0.002075     -0.000032
     5   Atom        0.000230     -0.000000      0.000009
     6   Atom        0.000607      0.002003      0.003689
     7   Atom       -0.000608     -0.002003      0.003689
     8   Atom       -0.000598      0.002005     -0.003667
     9   Atom       -0.000005     -0.001314     -0.000030
    10   Atom       -0.000162      0.000001      0.000050
    11   Atom        0.000598     -0.002005     -0.003667
    12   Atom       -0.000230      0.000000      0.000009
    13   Atom        0.000000      0.000000      0.000002
    14   Atom        0.000006      0.002075     -0.000032
    15   Atom        0.000162     -0.000001      0.000050
 --------------------------------------------------------


 ---------------------------------------------------------------------------------
              Anisotropic Spin Dipole Couplings in Principal Axis System
 ---------------------------------------------------------------------------------

       Atom             a.u.   MegaHertz   Gauss  10(-4) cm-1        Axes

              Baa    -0.0058     0.127     0.045     0.042 -0.2549  0.0025  0.9670
     1 Ag(107 Bbb    -0.0005     0.011     0.004     0.004  0.9670  0.0004  0.2549
              Bcc     0.0063    -0.138    -0.049    -0.046  0.0003  1.0000 -0.0025
 
              Baa    -0.0064     0.139     0.050     0.046  0.1285  0.9917 -0.0027
     2 Ag(107 Bbb    -0.0021     0.045     0.016     0.015  0.9917 -0.1285  0.0003
              Bcc     0.0085    -0.184    -0.066    -0.061  0.0000  0.0027  1.0000
 
              Baa    -0.0064     0.139     0.050     0.046 -0.1285  0.9917 -0.0027
     3 Ag(107 Bbb    -0.0021     0.045     0.016     0.015  0.9917  0.1285 -0.0003
              Bcc     0.0085    -0.184    -0.066    -0.061 -0.0001  0.0027  1.0000
 
              Baa    -0.0064     0.138     0.049     0.046  0.4313  0.0023  0.9022
     4 Ag(107 Bbb    -0.0010     0.022     0.008     0.007  0.9022 -0.0010 -0.4313
              Bcc     0.0074    -0.160    -0.057    -0.053 -0.0001  1.0000 -0.0025
 
              Baa    -0.0024     0.053     0.019     0.018 -0.0590  0.9983 -0.0028
     5 Ag(107 Bbb     0.0010    -0.021    -0.008    -0.007 -0.0012  0.0027  1.0000
              Bcc     0.0015    -0.032    -0.011    -0.011  0.9983  0.0591  0.0010
 
              Baa    -0.0123     0.268     0.096     0.089  0.0169  0.8642 -0.5029
     6 Ag(107 Bbb    -0.0040     0.087     0.031     0.029 -0.1005  0.5019  0.8590
              Bcc     0.0164    -0.355    -0.127    -0.118  0.9948  0.0360  0.0953
 
              Baa    -0.0123     0.268     0.096     0.089 -0.0169  0.8641 -0.5030
     7 Ag(107 Bbb    -0.0040     0.087     0.031     0.029  0.1005  0.5020  0.8590
              Bcc     0.0164    -0.355    -0.127    -0.118  0.9948 -0.0360 -0.0953
 
              Baa    -0.0123     0.268     0.096     0.089 -0.0169  0.8665  0.4988
     8 Ag(107 Bbb    -0.0040     0.087     0.031     0.029 -0.1004 -0.4979  0.8614
              Bcc     0.0164    -0.355    -0.127    -0.118  0.9948 -0.0355  0.0954
 
              Baa    -0.0058     0.127     0.045     0.042  0.2549  0.0025  0.9670
     9 Ag(107 Bbb    -0.0005     0.011     0.004     0.004  0.9670 -0.0003 -0.2549
              Bcc     0.0063    -0.138    -0.049    -0.046 -0.0003  1.0000 -0.0025
 
              Baa    -0.0077     0.168     0.060     0.056  0.0361  0.9993 -0.0027
    10 Ag(107 Bbb    -0.0033     0.071     0.025     0.024  0.9993 -0.0361  0.0000
              Bcc     0.0110    -0.239    -0.085    -0.080  0.0001  0.0027  1.0000
 
              Baa    -0.0123     0.268     0.096     0.089  0.0169  0.8665  0.4988
    11 Ag(107 Bbb    -0.0040     0.087     0.031     0.029  0.1004 -0.4979  0.8614
              Bcc     0.0164    -0.355    -0.127    -0.118  0.9948  0.0355 -0.0954
 
              Baa    -0.0024     0.053     0.019     0.018  0.0590  0.9983 -0.0028
    12 Ag(107 Bbb     0.0010    -0.021    -0.008    -0.007  0.0010  0.0027  1.0000
              Bcc     0.0015    -0.032    -0.011    -0.011  0.9983 -0.0590 -0.0009
 
              Baa    -0.0322     0.698     0.249     0.233  1.0000 -0.0000 -0.0000
    13 Ag(107 Bbb     0.0150    -0.326    -0.116    -0.109  0.0000 -0.0010  1.0000
              Bcc     0.0171    -0.372    -0.133    -0.124  0.0000  1.0000  0.0010
 
              Baa    -0.0064     0.138     0.049     0.046 -0.4313  0.0023  0.9022
    14 Ag(107 Bbb    -0.0010     0.022     0.008     0.007  0.9022  0.0010  0.4313
              Bcc     0.0074    -0.160    -0.057    -0.053  0.0001  1.0000 -0.0025
 
              Baa    -0.0077     0.168     0.060     0.056 -0.0361  0.9993 -0.0026
    15 Ag(107 Bbb    -0.0033     0.071     0.025     0.024  0.9993  0.0361 -0.0000
              Bcc     0.0110    -0.239    -0.085    -0.080 -0.0001  0.0026  1.0000
 

 ---------------------------------------------------------------------------------

 No NMR shielding tensors so no spin-rotation constants.
 Leave Link  601 at Wed Feb 26 00:50:49 2025, MaxMem=  2097152000 cpu:               1.7 elap:               0.5
 (Enter /nvme/h/buildsets/eb_nepheli/software/Gaussian/16.C.01-AVX2/g16/l701.exe)
 ... and contract with generalized density number  0.
 Compute integral first derivatives.
 R6Disp: Adding Grimme-D2 dispersion energy 1st derivatives to the gradient.
   1 Symmetry operations used in ECPInt.
 ECPInt:  NShTT=   13695 NPrTT=   40980 LenC2=   13102 LenP2D=   32281.
 LDataN:  DoStor=T MaxTD1= 8 Len=  415
 Leave Link  701 at Wed Feb 26 00:51:04 2025, MaxMem=  2097152000 cpu:              60.4 elap:              15.3
 (Enter /nvme/h/buildsets/eb_nepheli/software/Gaussian/16.C.01-AVX2/g16/l702.exe)
 L702 exits ... SP integral derivatives will be done elsewhere.
 Leave Link  702 at Wed Feb 26 00:51:04 2025, MaxMem=  2097152000 cpu:               0.0 elap:               0.0
 (Enter /nvme/h/buildsets/eb_nepheli/software/Gaussian/16.C.01-AVX2/g16/l703.exe)
 Integral derivatives from FoFJK, PRISM(SPDF).
 Compute integral first derivatives, UseDBF=F ICtDFT=           0.
 Calling FoFJK, ICntrl=      2127 FMM=F ISym2X=0 I1Cent= 0 IOpClX= 1 NMat=1 NMatS=1 NMatT=0.
 FoFJK:  IHMeth= 1 ICntrl=    2127 DoSepK=T KAlg= 0 I1Cent=           0 FoldK=F
 IRaf=         1 NMat=       1 IRICut=       1 DoRegI=T DoRafI=F ISym2E= 0 IDoP0=0 IntGTp=1.
 FoFCou: FMM=F IPFlag=           0 FMFlag=      100000 FMFlg1=         800
         NFxFlg=           0 DoJE=F BraDBF=F KetDBF=F FulRan=T
         wScrn=  0.000000 ICntrl=      2527 IOpCl=  0 I1Cent=           0 NGrid=           0
         NMat0=    1 NMatS0=      1 NMatT0=    0 NMatD0=    1 NMtDS0=    0 NMtDT0=    0
 Symmetry not used in FoFCou.
 Defaulting to unpruned grid for atomic number  47.
 Defaulting to unpruned grid for atomic number  47.
 Defaulting to unpruned grid for atomic number  47.
 Defaulting to unpruned grid for atomic number  47.
 Leave Link  703 at Wed Feb 26 00:56:13 2025, MaxMem=  2097152000 cpu:            1219.5 elap:             308.4
 (Enter /nvme/h/buildsets/eb_nepheli/software/Gaussian/16.C.01-AVX2/g16/l716.exe)
 Dipole        = 4.10154263D-01-5.86212550D-07-1.95720344D-05
 ***** Axes restored to original set *****
 -------------------------------------------------------------------
 Center     Atomic                   Forces (Hartrees/Bohr)
 Number     Number              X              Y              Z
 -------------------------------------------------------------------
      1       47           0.000036828   -0.000000608   -0.000046639
      2       47          -0.000045116   -0.000013681   -0.000000263
      3       47          -0.000045092    0.000013720    0.000000328
      4       47          -0.000042364   -0.000003922   -0.000018051
      5       47           0.000017569   -0.000064632    0.000005138
      6       47           0.000012013    0.000066826   -0.000014733
      7       47           0.000011987   -0.000066412    0.000014926
      8       47           0.000009171   -0.000019435    0.000018203
      9       47           0.000036801    0.000000578    0.000046727
     10       47          -0.000027933   -0.000113749    0.000010583
     11       47           0.000009069    0.000019063   -0.000017930
     12       47           0.000017590    0.000064630   -0.000005111
     13       47           0.000079895   -0.000000046   -0.000000665
     14       47          -0.000042482    0.000003935    0.000018068
     15       47          -0.000027935    0.000113733   -0.000010581
 -------------------------------------------------------------------
 Cartesian Forces:  Max     0.000113749 RMS     0.000039449
 Z-matrix is all fixed cartesians, so copy forces.
 Leave Link  716 at Wed Feb 26 00:56:13 2025, MaxMem=  2097152000 cpu:               0.1 elap:               0.0
 (Enter /nvme/h/buildsets/eb_nepheli/software/Gaussian/16.C.01-AVX2/g16/l103.exe)

 GradGradGradGradGradGradGradGradGradGradGradGradGradGradGradGradGradGrad
 Berny optimization.
 Search for a local minimum.
 Step number   1 out of a maximum of    2
 All quantities printed in internal units (Hartrees-Bohrs-Radians)
 Second derivative matrix not updated -- first step.
 ITU=  0
     Eigenvalues ---    0.12422   0.12673   0.13580   0.14361   0.19138
     Eigenvalues ---    0.20415   0.22156   0.23890   0.26090   0.26478
     Eigenvalues ---    0.28124   0.28804   0.30329   0.30694   0.31740
     Eigenvalues ---    0.32179   0.33391   0.33905   0.36119   0.36279
     Eigenvalues ---    0.37889   0.40165   0.40757   0.44307   0.44356
     Eigenvalues ---    0.46933   0.47035   0.48788   0.50890   0.52086
     Eigenvalues ---    0.58307   0.58917   0.59963   0.66152   0.66757
     Eigenvalues ---    1.45011   1.63978   2.03844   8.16548
 Angle between quadratic step and forces=  26.41 degrees.
 Linear search not attempted -- first point.
 B after Tr=     0.000000    0.000000   -0.000000
         Rot=    1.000000   -0.000000   -0.000000    0.000000 Ang=   0.00 deg.
 Variable       Old X    -DE/DX   Delta X   Delta X   Delta X     New X
                                 (Linear)    (Quad)   (Total)
    X1        5.58581   0.00004   0.00000   0.00016   0.00016   5.58597
    Y1        0.00013  -0.00000   0.00000  -0.00000  -0.00000   0.00013
    Z1        3.49610  -0.00005   0.00000  -0.00024  -0.00024   3.49586
    X2        4.64953  -0.00005   0.00000  -0.00016  -0.00016   4.64937
    Y2       -4.09304  -0.00001   0.00000  -0.00009  -0.00009  -4.09313
    Z2        0.00011  -0.00000   0.00000   0.00001   0.00001   0.00012
    X3        4.64956  -0.00005   0.00000  -0.00016  -0.00016   4.64940
    Y3        4.09301   0.00001   0.00000   0.00009   0.00009   4.09311
    Z3       -0.00012   0.00000   0.00000  -0.00001  -0.00001  -0.00014
    X4       -3.56297  -0.00004   0.00000  -0.00009  -0.00009  -3.56305
    Y4        0.00016  -0.00000   0.00000  -0.00001  -0.00001   0.00015
    Z4        3.19273  -0.00002   0.00000  -0.00003  -0.00003   3.19270
    X5       -7.12830   0.00002   0.00000   0.00002   0.00002  -7.12828
    Y5       -2.66773  -0.00006   0.00000  -0.00018  -0.00018  -2.66791
    Z5        0.00004   0.00001   0.00000   0.00006   0.00006   0.00010
    X6        0.96357   0.00001   0.00000   0.00006   0.00006   0.96363
    Y6        2.99031   0.00007   0.00000   0.00014   0.00014   2.99045
    Z6       -4.27427  -0.00001   0.00000  -0.00002  -0.00002  -4.27429
    X7        0.96356   0.00001   0.00000   0.00006   0.00006   0.96362
    Y7       -2.99036  -0.00007   0.00000  -0.00014  -0.00014  -2.99050
    Z7        4.27427   0.00001   0.00000   0.00002   0.00002   4.27429
    X8        0.96357   0.00001   0.00000   0.00004   0.00004   0.96361
    Y8       -2.99080  -0.00002   0.00000  -0.00002  -0.00002  -2.99082
    Z8       -4.27418   0.00002   0.00000   0.00007   0.00007  -4.27410
    X9        5.58581   0.00004   0.00000   0.00016   0.00016   5.58597
    Y9       -0.00017   0.00000   0.00000   0.00000   0.00000  -0.00016
    Z9       -3.49609   0.00005   0.00000   0.00024   0.00024  -3.49585
   X10       -2.17249  -0.00003   0.00000  -0.00006  -0.00006  -2.17255
   Y10        4.21810  -0.00011   0.00000  -0.00023  -0.00023   4.21786
   Z10       -0.00015   0.00001   0.00000  -0.00001  -0.00001  -0.00017
   X11        0.96360   0.00001   0.00000   0.00004   0.00004   0.96365
   Y11        2.99084   0.00002   0.00000   0.00002   0.00002   2.99086
   Z11        4.27417  -0.00002   0.00000  -0.00007  -0.00007   4.27410
   X12       -7.12829   0.00002   0.00000   0.00002   0.00002  -7.12827
   Y12        2.66777   0.00006   0.00000   0.00018   0.00018   2.66795
   Z12       -0.00005  -0.00001   0.00000  -0.00006  -0.00006  -0.00011
   X13        1.40252   0.00008   0.00000   0.00004   0.00004   1.40256
   Y13       -0.00000  -0.00000   0.00000  -0.00000  -0.00000  -0.00000
   Z13        0.00003  -0.00000   0.00000  -0.00000  -0.00000   0.00003
   X14       -3.56298  -0.00004   0.00000  -0.00009  -0.00009  -3.56307
   Y14       -0.00014   0.00000   0.00000   0.00001   0.00001  -0.00013
   Z14       -3.19274   0.00002   0.00000   0.00003   0.00003  -3.19271
   X15       -2.17251  -0.00003   0.00000  -0.00006  -0.00006  -2.17257
   Y15       -4.21808   0.00011   0.00000   0.00023   0.00023  -4.21785
   Z15        0.00015  -0.00001   0.00000   0.00001   0.00001   0.00016
         Item               Value     Threshold  Converged?
 Maximum Force            0.000114     0.000450     YES
 RMS     Force            0.000039     0.000300     YES
 Maximum Displacement     0.000241     0.001800     YES
 RMS     Displacement     0.000107     0.001200     YES
 Predicted change in Energy=-8.483529D-08
 Optimization completed.
    -- Stationary point found.
 GradGradGradGradGradGradGradGradGradGradGradGradGradGradGradGradGradGrad

 Leave Link  103 at Wed Feb 26 00:56:14 2025, MaxMem=  2097152000 cpu:               1.0 elap:               0.3
 (Enter /nvme/h/buildsets/eb_nepheli/software/Gaussian/16.C.01-AVX2/g16/l9999.exe)
 Unable to Open any file for archive entry.
 1\1\GINC-NE08\Force\UwB97XD\def2SVP\Ag15(2)\NPATSALIDIS\26-Feb-2025\0\
 \#p wb97xd/def2SVP scf(xqc) scfcyc=999 force\\Template file\\0,2\Ag,2.
 955884,0.000071,1.850055\Ag,2.460426,-2.165944,0.000058\Ag,2.46044,2.1
 65929,-0.000064\Ag,-1.88544,0.000083,1.689521\Ag,-3.772136,-1.411701,0
 .00002\Ag,0.5099,1.582403,-2.261847\Ag,0.509893,-1.582431,2.261847\Ag,
 0.509899,-1.582662,-2.261797\Ag,2.955884,-0.000088,-1.85005\Ag,-1.1496
 3,2.232121,-0.000082\Ag,0.509917,1.582685,2.261795\Ag,-3.772128,1.4117
 23,-0.000024\Ag,0.742182,-0.000002,0.000015\Ag,-1.885446,-0.000072,-1.
 689525\Ag,-1.149643,-2.232114,0.000079\\Version=ES64L-G16RevC.01\State
 =2-A\HF=-2205.5098376\S2=0.762612\S2-1=0.\S2A=0.750123\RMSD=7.131e-09\
 RMSF=3.945e-05\Dipole=0.4101543,-0.0000005,0.0000204\Quadrupole=-1.044
 1485,1.8727333,-0.8285848,-0.000019,-0.0000607,0.0001524\PG=C01 [X(Ag1
 5)]\\@
 The archive entry for this job was punched.


 IF AT FIRST YOU DON'T SUCCEED, TRY, TRY AGAIN.
 THEN GIVE UP;
 THERE'S NO USE BEING A DAMN FOOL ABOUT IT.

                                 -- W. C. FIELDS
 Job cpu time:       0 days  2 hours  2 minutes 29.7 seconds.
 Elapsed time:       0 days  0 hours 30 minutes 58.3 seconds.
 File lengths (MBytes):  RWF=    209 Int=      0 D2E=      0 Chk=     16 Scr=      1
 Normal termination of Gaussian 16 at Wed Feb 26 00:56:14 2025.
