 Entering Gaussian System, Link 0=g16
 Initial command:
 /nvme/h/buildsets/eb_nepheli/software/Gaussian/16.C.01-AVX2/g16/l1.exe "/onyx/data/simea/nikolas/postDoc/Active-Learning-Package/Ag-mainy/init_data/Ag9/Gau-68079.inp" -scrdir="/onyx/data/simea/nikolas/postDoc/Active-Learning-Package/Ag-mainy/init_data/Ag9/"
 Entering Link 1 = /nvme/h/buildsets/eb_nepheli/software/Gaussian/16.C.01-AVX2/g16/l1.exe PID=     68083.
  
 Copyright (c) 1988-2019, Gaussian, Inc.  All Rights Reserved.
  
 This is part of the Gaussian(R) 16 program.  It is based on
 the Gaussian(R) 09 system (copyright 2009, Gaussian, Inc.),
 the Gaussian(R) 03 system (copyright 2003, Gaussian, Inc.),
 the Gaussian(R) 98 system (copyright 1998, Gaussian, Inc.),
 the Gaussian(R) 94 system (copyright 1995, Gaussian, Inc.),
 the Gaussian 92(TM) system (copyright 1992, Gaussian, Inc.),
 the Gaussian 90(TM) system (copyright 1990, Gaussian, Inc.),
 the Gaussian 88(TM) system (copyright 1988, Gaussian, Inc.),
 the Gaussian 86(TM) system (copyright 1986, Carnegie Mellon
 University), and the Gaussian 82(TM) system (copyright 1983,
 Carnegie Mellon University). Gaussian is a federally registered
 trademark of Gaussian, Inc.
  
 This software contains proprietary and confidential information,
 including trade secrets, belonging to Gaussian, Inc.
  
 This software is provided under written license and may be
 used, copied, transmitted, or stored only in accord with that
 written license.
  
 The following legend is applicable only to US Government
 contracts under FAR:
  
                    RESTRICTED RIGHTS LEGEND
  
 Use, reproduction and disclosure by the US Government is
 subject to restrictions as set forth in subparagraphs (a)
 and (c) of the Commercial Computer Software - Restricted
 Rights clause in FAR 52.227-19.
  
 Gaussian, Inc.
 340 Quinnipiac St., Bldg. 40, Wallingford CT 06492
  
  
 ---------------------------------------------------------------
 Warning -- This program may not be used in any manner that
 competes with the business of Gaussian, Inc. or will provide
 assistance to any competitor of Gaussian, Inc.  The licensee
 of this program is prohibited from giving any competitor of
 Gaussian, Inc. access to this program.  By using this program,
 the user acknowledges that Gaussian, Inc. is engaged in the
 business of creating and licensing software in the field of
 computational chemistry and represents and warrants to the
 licensee that it is not a competitor of Gaussian, Inc. and that
 it will not use this program in any manner prohibited above.
 ---------------------------------------------------------------
  

 Cite this work as:
 Gaussian 16, Revision C.01,
 M. J. Frisch, G. W. Trucks, H. B. Schlegel, G. E. Scuseria, 
 M. A. Robb, J. R. Cheeseman, G. Scalmani, V. Barone, 
 G. A. Petersson, H. Nakatsuji, X. Li, M. Caricato, A. V. Marenich, 
 J. Bloino, B. G. Janesko, R. Gomperts, B. Mennucci, H. P. Hratchian, 
 J. V. Ortiz, A. F. Izmaylov, J. L. Sonnenberg, D. Williams-Young, 
 F. Ding, F. Lipparini, F. Egidi, J. Goings, B. Peng, A. Petrone, 
 T. Henderson, D. Ranasinghe, V. G. Zakrzewski, J. Gao, N. Rega, 
 G. Zheng, W. Liang, M. Hada, M. Ehara, K. Toyota, R. Fukuda, 
 J. Hasegawa, M. Ishida, T. Nakajima, Y. Honda, O. Kitao, H. Nakai, 
 T. Vreven, K. Throssell, J. A. Montgomery, Jr., J. E. Peralta, 
 F. Ogliaro, M. J. Bearpark, J. J. Heyd, E. N. Brothers, K. N. Kudin, 
 V. N. Staroverov, T. A. Keith, R. Kobayashi, J. Normand, 
 K. Raghavachari, A. P. Rendell, J. C. Burant, S. S. Iyengar, 
 J. Tomasi, M. Cossi, J. M. Millam, M. Klene, C. Adamo, R. Cammi, 
 J. W. Ochterski, R. L. Martin, K. Morokuma, O. Farkas, 
 J. B. Foresman, and D. J. Fox, Gaussian, Inc., Wallingford CT, 2019.
 
 ******************************************
 Gaussian 16:  ES64L-G16RevC.01  3-Jul-2019
                25-Feb-2025 
 ******************************************
 %nprocshared=4
 Will use up to    4 processors via shared memory.
 %mem=16000MB
 -------------------------------------------
 #p wb97xd/def2SVP scf(xqc) scfcyc=999 force
 -------------------------------------------
 1/10=7,30=1,38=1/1,3;
 2/12=2,17=6,18=5,40=1/2;
 3/5=43,7=101,11=2,25=1,30=1,71=1,74=-58/1,2,3;
 4//1;
 5/5=2,7=999,8=3,13=1,38=5/2,8;
 6/7=2,8=2,9=2,10=2,28=1/1;
 7/29=1/1,2,3,16;
 1/10=7,30=1/3;
 99//99;
 Leave Link    1 at Tue Feb 25 20:26:50 2025, MaxMem=  2097152000 cpu:               0.2 elap:               0.1
 (Enter /nvme/h/buildsets/eb_nepheli/software/Gaussian/16.C.01-AVX2/g16/l101.exe)
 -------------
 Template file
 -------------
 Symbolic Z-matrix:
 Charge =  0 Multiplicity = 2
 Ag                   -2.31061   1.4953    0.7872 
 Ag                   -2.31077  -1.49522   0.78699 
 Ag                    2.31077   1.49522   0.78699 
 Ag                    2.31061  -1.4953    0.7872 
 Ag                    0.00001   2.28483  -0.65486 
 Ag                   -0.00001  -2.28483  -0.65486 
 Ag                    0.        0.        1.28355 
 Ag                   -1.40083  -0.00001  -1.56111 
 Ag                    1.40083   0.00001  -1.56111 
 
 ITRead=  0  0  0  0  0  0  0  0  0
 MicOpt= -1 -1 -1 -1 -1 -1 -1 -1 -1
 NAtoms=      9 NQM=        9 NQMF=       0 NMMI=      0 NMMIF=      0
                NMic=       0 NMicF=      0.
                    Isotopes and Nuclear Properties:
 (Nuclear quadrupole moments (NQMom) in fm**2, nuclear magnetic moments (NMagM)
  in nuclear magnetons)

  Atom         1           2           3           4           5           6           7           8           9
 IAtWgt=         107         107         107         107         107         107         107         107         107
 AtmWgt= 106.9050900 106.9050900 106.9050900 106.9050900 106.9050900 106.9050900 106.9050900 106.9050900 106.9050900
 NucSpn=           1           1           1           1           1           1           1           1           1
 AtZEff=  -0.0000000  -0.0000000  -0.0000000  -0.0000000  -0.0000000  -0.0000000  -0.0000000  -0.0000000  -0.0000000
 NQMom=    0.0000000   0.0000000   0.0000000   0.0000000   0.0000000   0.0000000   0.0000000   0.0000000   0.0000000
 NMagM=   -0.1135700  -0.1135700  -0.1135700  -0.1135700  -0.1135700  -0.1135700  -0.1135700  -0.1135700  -0.1135700
 AtZNuc=  47.0000000  47.0000000  47.0000000  47.0000000  47.0000000  47.0000000  47.0000000  47.0000000  47.0000000
 Leave Link  101 at Tue Feb 25 20:26:50 2025, MaxMem=  2097152000 cpu:               0.2 elap:               0.1
 (Enter /nvme/h/buildsets/eb_nepheli/software/Gaussian/16.C.01-AVX2/g16/l103.exe)

 GradGradGradGradGradGradGradGradGradGradGradGradGradGradGradGradGradGrad
 Berny optimization.
 Initialization pass.
 Trust Radius=3.00D-01 FncErr=1.00D-07 GrdErr=1.00D-07 EigMax=2.50D+02 EigMin=1.00D-04
 Number of steps in this run=      2 maximum allowed number of steps=      2.
 GradGradGradGradGradGradGradGradGradGradGradGradGradGradGradGradGradGrad

 Leave Link  103 at Tue Feb 25 20:26:51 2025, MaxMem=  2097152000 cpu:               0.1 elap:               0.0
 (Enter /nvme/h/buildsets/eb_nepheli/software/Gaussian/16.C.01-AVX2/g16/l202.exe)
                          Input orientation:                          
 ---------------------------------------------------------------------
 Center     Atomic      Atomic             Coordinates (Angstroms)
 Number     Number       Type             X           Y           Z
 ---------------------------------------------------------------------
      1         47           0       -2.310612    1.495304    0.787204
      2         47           0       -2.310771   -1.495216    0.786987
      3         47           0        2.310771    1.495216    0.786987
      4         47           0        2.310612   -1.495304    0.787204
      5         47           0        0.000012    2.284828   -0.654857
      6         47           0       -0.000012   -2.284828   -0.654857
      7         47           0        0.000000    0.000000    1.283548
      8         47           0       -1.400827   -0.000010   -1.561109
      9         47           0        1.400827    0.000010   -1.561109
 ---------------------------------------------------------------------
                    Distance matrix (angstroms):
                    1          2          3          4          5
     1  Ag   0.000000
     2  Ag   2.990520   0.000000
     3  Ag   4.621383   5.504665   0.000000
     4  Ag   5.504493   4.621383   2.990520   0.000000
     5  Ag   2.835819   4.659116   2.835844   4.659164   0.000000
     6  Ag   4.659164   2.835844   4.659116   2.835819   4.569656
     7  Ag   2.796644   2.796767   2.796767   2.796644   2.996307
     8  Ag   2.928864   2.928685   4.639527   4.639532   2.829157
     9  Ag   4.639532   4.639527   2.928685   2.928864   2.829129
                    6          7          8          9
     6  Ag   0.000000
     7  Ag   2.996307   0.000000
     8  Ag   2.829129   3.170866   0.000000
     9  Ag   2.829157   3.170866   2.801654   0.000000
 Stoichiometry    Ag9(2)
 Framework group  C2[C2(Ag),X(Ag8)]
 Deg. of freedom    11
 Full point group                 C2      NOp   2
 Largest Abelian subgroup         C2      NOp   2
 Largest concise Abelian subgroup C2      NOp   2
                         Standard orientation:                         
 ---------------------------------------------------------------------
 Center     Atomic      Atomic             Coordinates (Angstroms)
 Number     Number       Type             X           Y           Z
 ---------------------------------------------------------------------
      1         47           0       -2.310620    1.495292    0.787204
      2         47           0       -2.310763   -1.495228    0.786987
      3         47           0        2.310763    1.495228    0.786987
      4         47           0        2.310620   -1.495292    0.787204
      5         47           0        0.000000    2.284828   -0.654857
      6         47           0       -0.000000   -2.284828   -0.654857
      7         47           0        0.000000    0.000000    1.283548
      8         47           0       -1.400827   -0.000017   -1.561109
      9         47           0        1.400827    0.000017   -1.561109
 ---------------------------------------------------------------------
 Rotational constants (GHZ):           0.1616664           0.1345325           0.1058383
 Leave Link  202 at Tue Feb 25 20:26:51 2025, MaxMem=  2097152000 cpu:               0.0 elap:               0.0
 (Enter /nvme/h/buildsets/eb_nepheli/software/Gaussian/16.C.01-AVX2/g16/l301.exe)
 Standard basis: def2SVP (5D, 7F)
 Ernie: Thresh=  0.10000D-02 Tol=  0.10000D-05 Strict=F.
 There are   164 symmetry adapted cartesian basis functions of A   symmetry.
 There are   160 symmetry adapted cartesian basis functions of B   symmetry.
 There are   141 symmetry adapted basis functions of A   symmetry.
 There are   138 symmetry adapted basis functions of B   symmetry.
   279 basis functions,   585 primitive gaussians,   324 cartesian basis functions
    86 alpha electrons       85 beta electrons
       nuclear repulsion energy      2040.2238566682 Hartrees.
 IExCor= 4639 DFT=T Ex+Corr=wB97XD ExCW=0 ScaHFX=  1.000000
 ScaDFX=  1.000000  1.000000  1.000000  1.000000 ScalE2=  1.000000  1.000000
 IRadAn=      5 IRanWt=     -1 IRanGd=            0 ICorTp=0 IEmpDi=121
 HFx  wShort=  0.000000 wLong=  0.200000 cFull=  0.222036 cShort=  0.000000 cLong=  0.777964
 DFx  wShort=  0.000000 wLong=  0.200000 cFull=  0.000000 cShort=  0.000000 cLong=  1.000000
 NAtoms=    9 NActive=    9 NUniq=    5 SFac= 3.24D+00 NAtFMM=   60 NAOKFM=F Big=F
 Integral buffers will be    131072 words long.
 Raffenetti 2 integral format.
 Two-electron integral symmetry is turned on.
 R6Disp:  Grimme-D2 Dispersion energy=       -0.0237393071 Hartrees.
 Nuclear repulsion after empirical dispersion term =     2040.2001173610 Hartrees.
 Leave Link  301 at Tue Feb 25 20:26:51 2025, MaxMem=  2097152000 cpu:               0.1 elap:               0.0
 (Enter /nvme/h/buildsets/eb_nepheli/software/Gaussian/16.C.01-AVX2/g16/l302.exe)
 NPDir=0 NMtPBC=     1 NCelOv=     1 NCel=       1 NClECP=     1 NCelD=      1
         NCelK=      1 NCelE2=     1 NClLst=     1 CellRange=     0.0.
 One-electron integrals computed using PRISM.
 One-electron integral symmetry used in STVInt
   2 Symmetry operations used in ECPInt.
 ECPInt:  NShTT=    4950 NPrTT=   14841 LenC2=    4878 LenP2D=   12680.
 LDataN:  DoStor=T MaxTD1= 7 Len=  274
 NBasis=   279 RedAO= T EigKep=  3.20D-04  NBF=   141   138
 NBsUse=   279 1.00D-06 EigRej= -1.00D+00 NBFU=   141   138
 Precomputing XC quadrature grid using
 IXCGrd= 4 IRadAn=           5 IRanWt=          -1 IRanGd=           0 AccXCQ= 0.00D+00.
 Defaulting to unpruned grid for atomic number  47.
 Defaulting to unpruned grid for atomic number  47.
 Defaulting to unpruned grid for atomic number  47.
 Generated NRdTot=       0 NPtTot=           0 NUsed=           0 NTot=          32
 NSgBfM=   324   324   324   324   324 MxSgAt=     9 MxSgA2=     9.
 Leave Link  302 at Tue Feb 25 20:26:52 2025, MaxMem=  2097152000 cpu:               4.4 elap:               1.1
 (Enter /nvme/h/buildsets/eb_nepheli/software/Gaussian/16.C.01-AVX2/g16/l303.exe)
 DipDrv:  MaxL=1.
 Leave Link  303 at Tue Feb 25 20:26:53 2025, MaxMem=  2097152000 cpu:               0.1 elap:               0.1
 (Enter /nvme/h/buildsets/eb_nepheli/software/Gaussian/16.C.01-AVX2/g16/l401.exe)
 ExpMin= 3.75D-02 ExpMax= 9.09D+00 ExpMxC= 9.09D+00 IAcc=3 IRadAn=         5 AccDes= 0.00D+00
 Harris functional with IExCor= 4639 and IRadAn=       5 diagonalized for initial guess.
 HarFok:  IExCor= 4639 AccDes= 0.00D+00 IRadAn=         5 IDoV= 1 UseB2=F ITyADJ=14
 ICtDFT=  3500011 ScaDFX=  1.000000  1.000000  1.000000  1.000000
 Defaulting to unpruned grid for atomic number  47.
 FoFCou: FMM=F IPFlag=           0 FMFlag=      100000 FMFlg1=           0
         NFxFlg=           0 DoJE=T BraDBF=F KetDBF=T FulRan=T
         wScrn=  0.000000 ICntrl=       500 IOpCl=  0 I1Cent=   200000004 NGrid=           0
         NMat0=    1 NMatS0=      1 NMatT0=    0 NMatD0=    1 NMtDS0=    0 NMtDT0=    0
 Petite list used in FoFCou.
 Harris En= -1287.88071616420    
 JPrj=0 DoOrth=F DoCkMO=F.
 Initial guess orbital symmetries:
 Alpha Orbitals:
       Occupied  (A) (A) (B) (B) (A) (B) (A) (A) (B) (B) (B) (A)
                 (A) (B) (A) (A) (B) (B) (B) (A) (A) (B) (A) (B)
                 (A) (B) (A) (B) (A) (B) (B) (A) (A) (B) (A) (B)
                 (A) (B) (B) (A) (A) (A) (A) (B) (B) (A) (B) (B)
                 (A) (B) (A) (B) (A) (B) (A) (A) (B) (A) (A) (B)
                 (A) (B) (B) (B) (B) (A) (A) (A) (B) (B) (A) (A)
                 (B) (A) (A) (B) (B) (A) (A) (B) (B) (A) (B) (A)
                 (A) (B)
       Virtual   (A) (B) (A) (B) (A) (B) (B) (B) (A) (A) (B) (B)
                 (A) (B) (A) (A) (A) (B) (A) (B) (A) (A) (B) (B)
                 (A) (A) (B) (B) (B) (B) (A) (B) (A) (A) (B) (A)
                 (A) (B) (A) (B) (A) (B) (A) (B) (B) (B) (A) (B)
                 (A) (B) (A) (A) (A) (B) (A) (B) (A) (A) (B) (A)
                 (B) (B) (B) (A) (B) (B) (A) (A) (B) (B) (A) (B)
                 (B) (A) (A) (A) (B) (B) (A) (A) (B) (A) (A) (B)
                 (A) (B) (A) (B) (B) (A) (A) (B) (A) (A) (B) (B)
                 (A) (B) (B) (A) (A) (B) (A) (B) (B) (A) (B) (A)
                 (B) (A) (B) (A) (A) (B) (B) (A) (A) (B) (B) (A)
                 (A) (B) (B) (A) (A) (A) (B) (A) (B) (B) (A) (B)
                 (A) (B) (B) (A) (B) (A) (A) (B) (A) (B) (A) (B)
                 (A) (B) (A) (B) (A) (B) (A) (A) (A) (B) (B) (A)
                 (B) (B) (A) (B) (A) (B) (B) (B) (A) (A) (B) (A)
                 (A) (B) (B) (B) (A) (B) (A) (B) (A) (A) (B) (A)
                 (B) (A) (B) (A) (A) (B) (B) (A) (A) (B) (B) (A)
                 (A)
 Beta  Orbitals:
       Occupied  (A) (A) (B) (B) (A) (B) (A) (A) (B) (B) (B) (A)
                 (A) (B) (A) (A) (B) (B) (B) (A) (A) (B) (A) (B)
                 (A) (B) (A) (B) (A) (B) (B) (A) (A) (B) (A) (B)
                 (A) (B) (B) (A) (A) (A) (A) (B) (B) (A) (B) (B)
                 (A) (B) (A) (B) (A) (B) (A) (A) (B) (A) (A) (B)
                 (A) (B) (B) (B) (B) (A) (A) (A) (B) (B) (A) (A)
                 (B) (A) (A) (B) (B) (A) (A) (B) (B) (A) (B) (A)
                 (A)
       Virtual   (B) (A) (B) (A) (B) (A) (B) (B) (B) (A) (A) (B)
                 (B) (A) (B) (A) (A) (A) (B) (A) (B) (A) (A) (B)
                 (B) (A) (A) (B) (B) (B) (B) (A) (B) (A) (A) (B)
                 (A) (A) (B) (A) (B) (A) (B) (A) (B) (B) (B) (A)
                 (B) (A) (B) (A) (A) (A) (B) (A) (B) (A) (A) (B)
                 (A) (B) (B) (B) (A) (B) (B) (A) (A) (B) (B) (A)
                 (B) (B) (A) (A) (A) (B) (B) (A) (A) (B) (A) (A)
                 (B) (A) (B) (A) (B) (B) (A) (A) (B) (A) (A) (B)
                 (B) (A) (B) (B) (A) (A) (B) (A) (B) (B) (A) (B)
                 (A) (B) (A) (B) (A) (A) (B) (B) (A) (A) (B) (B)
                 (A) (A) (B) (B) (A) (A) (A) (B) (A) (B) (B) (A)
                 (B) (A) (B) (B) (A) (B) (A) (A) (B) (A) (B) (A)
                 (B) (A) (B) (A) (B) (A) (B) (A) (A) (A) (B) (B)
                 (A) (B) (B) (A) (B) (A) (B) (B) (B) (A) (A) (B)
                 (A) (A) (B) (B) (B) (A) (B) (A) (B) (A) (A) (B)
                 (A) (B) (A) (B) (A) (A) (B) (B) (A) (A) (B) (B)
                 (A) (A)
 The electronic state of the initial guess is 2-B.
 Initial guess <Sx>= 0.0000 <Sy>= 0.0000 <Sz>= 0.5000 <S**2>= 0.7500 S= 0.5000
 Leave Link  401 at Tue Feb 25 20:26:54 2025, MaxMem=  2097152000 cpu:               4.3 elap:               1.1
 (Enter /nvme/h/buildsets/eb_nepheli/software/Gaussian/16.C.01-AVX2/g16/l502.exe)
 Integral symmetry usage will be decided dynamically.
 UHF open shell SCF:
 Using DIIS extrapolation, IDIIS=  1040.
 NGot=  2097152000 LenX=  2096936352 LenY=  2096830935
 Requested convergence on RMS density matrix=1.00D-08 within 128 cycles.
 Requested convergence on MAX density matrix=1.00D-06.
 Requested convergence on             energy=1.00D-06.
 No special actions if energy rises.
 Fock matrices will be formed incrementally for  20 cycles.

 Cycle   1  Pass 1  IDiag  1:
 FoFJK:  IHMeth= 1 ICntrl=       0 DoSepK=T KAlg= 0 I1Cent=           0 FoldK=F
 IRaf=         1 NMat=       1 IRICut=       1 DoRegI=T DoRafI=F ISym2E= 1 IDoP0=0 IntGTp=1.
 FoFCou: FMM=F IPFlag=           0 FMFlag=      100000 FMFlg1=           0
         NFxFlg=           0 DoJE=T BraDBF=F KetDBF=F FulRan=T
         wScrn=  0.000000 ICntrl=       500 IOpCl=  0 I1Cent=           0 NGrid=           0
         NMat0=    1 NMatS0=      1 NMatT0=    0 NMatD0=    1 NMtDS0=    0 NMtDT0=    0
 Petite list used in FoFCou.
 Defaulting to unpruned grid for atomic number  47.
 Defaulting to unpruned grid for atomic number  47.
 Defaulting to unpruned grid for atomic number  47.
 Defaulting to unpruned grid for atomic number  47.
 E= -1308.79545937539    
 DIIS: error= 2.11D-01 at cycle   1 NSaved=   1.
 NSaved= 1 IEnMin= 1 EnMin= -1308.79545937539     IErMin= 1 ErrMin= 2.11D-01
 ErrMax= 2.11D-01  0.00D+00 EMaxC= 1.00D-01 BMatC= 6.54D+01 BMatP= 6.54D+01
 IDIUse=3 WtCom= 0.00D+00 WtEn= 1.00D+00
 Coeff-Com:  0.100D+01
 Coeff-En:   0.100D+01
 Coeff:      0.100D+01
 Gap=    -0.298 Goal=   None    Shift=    0.000
 Gap=     0.051 Goal=   None    Shift=    0.000
 GapD=   -0.298 DampG=0.250 DampE=0.125 DampFc=0.1250 IDamp=-1.
 Damping current iteration by 1.25D-01
 RMSDP=4.07D-02 MaxDP=1.61D+00              OVMax= 9.70D-01

 Cycle   2  Pass 1  IDiag  1:
 RMSU=  4.84D-03    CP:  9.65D-01
 E= -1312.14180158472     Delta-E=       -3.346342209326 Rises=F Damp=T
 DIIS: error= 1.58D-01 at cycle   2 NSaved=   2.
 NSaved= 2 IEnMin= 2 EnMin= -1312.14180158472     IErMin= 2 ErrMin= 1.58D-01
 ErrMax= 1.58D-01  0.00D+00 EMaxC= 1.00D-01 BMatC= 3.60D+01 BMatP= 6.54D+01
 IDIUse=3 WtCom= 0.00D+00 WtEn= 1.00D+00
 Coeff-Com: -0.281D+01 0.381D+01
 Coeff-En:   0.000D+00 0.100D+01
 Coeff:      0.000D+00 0.100D+01
 Gap=     0.051 Goal=   None    Shift=    0.000
 Gap=     0.123 Goal=   None    Shift=    0.000
 RMSDP=3.41D-02 MaxDP=1.42D+00 DE=-3.35D+00 OVMax= 9.13D-02

 Cycle   3  Pass 1  IDiag  1:
 RMSU=  2.21D-02    CP:  6.72D-01  3.00D+00
 E= -1317.77261144505     Delta-E=       -5.630809860331 Rises=F Damp=F
 DIIS: error= 1.03D-01 at cycle   3 NSaved=   3.
 NSaved= 3 IEnMin= 3 EnMin= -1317.77261144505     IErMin= 3 ErrMin= 1.03D-01
 ErrMax= 1.03D-01  0.00D+00 EMaxC= 1.00D-01 BMatC= 2.23D+01 BMatP= 3.60D+01
 IDIUse=3 WtCom= 0.00D+00 WtEn= 1.00D+00
 EnCoef did    25 forward-backward iterations
 Coeff-Com: -0.290D+01 0.393D+01-0.213D-01
 Coeff-En:   0.276D+00 0.122D-02 0.723D+00
 Coeff:      0.276D+00 0.122D-02 0.723D+00
 Gap=     0.147 Goal=   None    Shift=    0.000
 Gap=     0.132 Goal=   None    Shift=    0.000
 RMSDP=2.67D-02 MaxDP=1.27D+00 DE=-5.63D+00 OVMax= 4.48D-01

 Cycle   4  Pass 1  IDiag  1:
 RMSU=  1.78D-02    CP:  5.55D-01  2.93D+00  1.48D-01
 E= -1322.74713271269     Delta-E=       -4.974521267644 Rises=F Damp=F
 DIIS: error= 5.10D-02 at cycle   4 NSaved=   4.
 NSaved= 4 IEnMin= 4 EnMin= -1322.74713271269     IErMin= 4 ErrMin= 5.10D-02
 ErrMax= 5.10D-02  0.00D+00 EMaxC= 1.00D-01 BMatC= 3.15D+00 BMatP= 2.23D+01
 IDIUse=3 WtCom= 4.90D-01 WtEn= 5.10D-01
 Coeff-Com: -0.172D+01 0.231D+01 0.370D-01 0.382D+00
 Coeff-En:   0.000D+00 0.000D+00 0.000D+00 0.100D+01
 Coeff:     -0.845D+00 0.113D+01 0.181D-01 0.697D+00
 Gap=     0.322 Goal=   None    Shift=    0.000
 Gap=     0.336 Goal=   None    Shift=    0.000
 RMSDP=7.89D-03 MaxDP=4.75D-01 DE=-4.97D+00 OVMax= 2.80D-01

 Cycle   5  Pass 1  IDiag  1:
 RMSU=  6.05D-03    CP:  5.26D-01  3.00D+00  3.29D-01  8.77D-01
 E= -1322.73415466712     Delta-E=        0.012978045565 Rises=F Damp=F
 DIIS: error= 3.22D-02 at cycle   5 NSaved=   5.
 NSaved= 5 IEnMin= 4 EnMin= -1322.74713271269     IErMin= 5 ErrMin= 3.22D-02
 ErrMax= 3.22D-02  0.00D+00 EMaxC= 1.00D-01 BMatC= 2.48D+00 BMatP= 3.15D+00
 IDIUse=3 WtCom= 6.78D-01 WtEn= 3.22D-01
 Coeff-Com: -0.638D+00 0.847D+00-0.638D-01 0.389D+00 0.466D+00
 Coeff-En:   0.000D+00 0.000D+00 0.000D+00 0.506D+00 0.494D+00
 Coeff:     -0.433D+00 0.574D+00-0.433D-01 0.426D+00 0.475D+00
 Gap=     0.140 Goal=   None    Shift=    0.000
 Gap=     0.166 Goal=   None    Shift=    0.000
 RMSDP=5.16D-03 MaxDP=3.58D-01 DE= 1.30D-02 OVMax= 1.47D-01

 Cycle   6  Pass 1  IDiag  1:
 RMSU=  2.36D-03    CP:  5.24D-01  3.00D+00  1.81D-01  1.02D+00  6.73D-01
 E= -1323.22647255404     Delta-E=       -0.492317886917 Rises=F Damp=F
 DIIS: error= 7.63D-03 at cycle   6 NSaved=   6.
 NSaved= 6 IEnMin= 6 EnMin= -1323.22647255404     IErMin= 6 ErrMin= 7.63D-03
 ErrMax= 7.63D-03  0.00D+00 EMaxC= 1.00D-01 BMatC= 9.38D-02 BMatP= 2.48D+00
 IDIUse=3 WtCom= 9.24D-01 WtEn= 7.63D-02
 Coeff-Com: -0.197D+00 0.274D+00-0.391D-01-0.167D-01-0.970D-01 0.108D+01
 Coeff-En:   0.000D+00 0.000D+00 0.000D+00 0.000D+00 0.000D+00 0.100D+01
 Coeff:     -0.182D+00 0.253D+00-0.361D-01-0.154D-01-0.896D-01 0.107D+01
 Gap=     0.140 Goal=   None    Shift=    0.000
 Gap=     0.172 Goal=   None    Shift=    0.000
 RMSDP=1.41D-03 MaxDP=5.29D-02 DE=-4.92D-01 OVMax= 2.76D-02

 Cycle   7  Pass 1  IDiag  1:
 RMSU=  6.38D-04    CP:  5.21D-01  3.00D+00  1.46D-01  1.04D+00  6.97D-01
                    CP:  1.39D+00
 E= -1323.24557498819     Delta-E=       -0.019102434149 Rises=F Damp=F
 DIIS: error= 3.95D-03 at cycle   7 NSaved=   7.
 NSaved= 7 IEnMin= 7 EnMin= -1323.24557498819     IErMin= 7 ErrMin= 3.95D-03
 ErrMax= 3.95D-03  0.00D+00 EMaxC= 1.00D-01 BMatC= 2.11D-02 BMatP= 9.38D-02
 IDIUse=3 WtCom= 9.60D-01 WtEn= 3.95D-02
 Coeff-Com: -0.396D-01 0.587D-01-0.235D-01-0.240D-01-0.392D-01 0.794D-01
 Coeff-Com:  0.988D+00
 Coeff-En:   0.000D+00 0.000D+00 0.000D+00 0.000D+00 0.000D+00 0.000D+00
 Coeff-En:   0.100D+01
 Coeff:     -0.381D-01 0.564D-01-0.226D-01-0.231D-01-0.376D-01 0.763D-01
 Coeff:      0.989D+00
 Gap=     0.144 Goal=   None    Shift=    0.000
 Gap=     0.176 Goal=   None    Shift=    0.000
 RMSDP=7.03D-04 MaxDP=2.72D-02 DE=-1.91D-02 OVMax= 1.90D-02

 Cycle   8  Pass 1  IDiag  1:
 RMSU=  3.26D-04    CP:  5.20D-01  2.95D+00  1.40D-01  1.04D+00  7.08D-01
                    CP:  1.55D+00  1.51D+00
 E= -1323.25054095400     Delta-E=       -0.004965965807 Rises=F Damp=F
 DIIS: error= 1.02D-03 at cycle   8 NSaved=   8.
 NSaved= 8 IEnMin= 8 EnMin= -1323.25054095400     IErMin= 8 ErrMin= 1.02D-03
 ErrMax= 1.02D-03  0.00D+00 EMaxC= 1.00D-01 BMatC= 1.98D-03 BMatP= 2.11D-02
 IDIUse=3 WtCom= 9.90D-01 WtEn= 1.02D-02
 Coeff-Com:  0.837D-02-0.113D-01-0.244D-02 0.351D-02 0.150D-01-0.310D+00
 Coeff-Com:  0.427D+00 0.869D+00
 Coeff-En:   0.000D+00 0.000D+00 0.000D+00 0.000D+00 0.000D+00 0.000D+00
 Coeff-En:   0.000D+00 0.100D+01
 Coeff:      0.829D-02-0.112D-01-0.241D-02 0.348D-02 0.148D-01-0.307D+00
 Coeff:      0.423D+00 0.871D+00
 Gap=     0.145 Goal=   None    Shift=    0.000
 Gap=     0.176 Goal=   None    Shift=    0.000
 RMSDP=2.65D-04 MaxDP=1.00D-02 DE=-4.97D-03 OVMax= 9.29D-03

 Cycle   9  Pass 1  IDiag  1:
 RMSU=  1.19D-04    CP:  5.20D-01  2.93D+00  1.39D-01  1.04D+00  7.10D-01
                    CP:  1.60D+00  1.76D+00  1.16D+00
 E= -1323.25105108586     Delta-E=       -0.000510131865 Rises=F Damp=F
 DIIS: error= 3.01D-04 at cycle   9 NSaved=   9.
 NSaved= 9 IEnMin= 9 EnMin= -1323.25105108586     IErMin= 9 ErrMin= 3.01D-04
 ErrMax= 3.01D-04  0.00D+00 EMaxC= 1.00D-01 BMatC= 1.60D-04 BMatP= 1.98D-03
 IDIUse=3 WtCom= 9.97D-01 WtEn= 3.01D-03
 Coeff-Com:  0.213D-02-0.325D-02 0.232D-03 0.247D-02 0.716D-02-0.135D+00
 Coeff-Com:  0.160D+00 0.391D+00 0.575D+00
 Coeff-En:   0.000D+00 0.000D+00 0.000D+00 0.000D+00 0.000D+00 0.000D+00
 Coeff-En:   0.000D+00 0.000D+00 0.100D+01
 Coeff:      0.212D-02-0.324D-02 0.231D-03 0.246D-02 0.714D-02-0.135D+00
 Coeff:      0.160D+00 0.390D+00 0.576D+00
 Gap=     0.145 Goal=   None    Shift=    0.000
 Gap=     0.176 Goal=   None    Shift=    0.000
 RMSDP=6.38D-05 MaxDP=2.06D-03 DE=-5.10D-04 OVMax= 2.99D-03

 Cycle  10  Pass 1  IDiag  1:
 RMSU=  4.52D-05    CP:  5.20D-01  2.93D+00  1.39D-01  1.04D+00  7.09D-01
                    CP:  1.59D+00  1.72D+00  1.19D+00  1.08D+00
 E= -1323.25109278834     Delta-E=       -0.000041702481 Rises=F Damp=F
 DIIS: error= 1.36D-04 at cycle  10 NSaved=  10.
 NSaved=10 IEnMin=10 EnMin= -1323.25109278834     IErMin=10 ErrMin= 1.36D-04
 ErrMax= 1.36D-04  0.00D+00 EMaxC= 1.00D-01 BMatC= 1.62D-05 BMatP= 1.60D-04
 IDIUse=3 WtCom= 9.99D-01 WtEn= 1.36D-03
 Coeff-Com:  0.118D-03-0.276D-03 0.247D-03-0.389D-03-0.124D-02 0.547D-01
 Coeff-Com: -0.608D-01-0.149D+00 0.113D+00 0.104D+01
 Coeff-En:   0.000D+00 0.000D+00 0.000D+00 0.000D+00 0.000D+00 0.000D+00
 Coeff-En:   0.000D+00 0.000D+00 0.000D+00 0.100D+01
 Coeff:      0.118D-03-0.276D-03 0.247D-03-0.389D-03-0.123D-02 0.546D-01
 Coeff:     -0.607D-01-0.148D+00 0.113D+00 0.104D+01
 Gap=     0.145 Goal=   None    Shift=    0.000
 Gap=     0.176 Goal=   None    Shift=    0.000
 RMSDP=5.73D-05 MaxDP=2.87D-03 DE=-4.17D-05 OVMax= 2.48D-03

 Cycle  11  Pass 1  IDiag  1:
 RMSU=  1.76D-05    CP:  5.20D-01  2.93D+00  1.39D-01  1.04D+00  7.09D-01
                    CP:  1.58D+00  1.69D+00  1.21D+00  1.32D+00  1.34D+00
 E= -1323.25110400861     Delta-E=       -0.000011220271 Rises=F Damp=F
 DIIS: error= 6.66D-05 at cycle  11 NSaved=  11.
 NSaved=11 IEnMin=11 EnMin= -1323.25110400861     IErMin=11 ErrMin= 6.66D-05
 ErrMax= 6.66D-05  0.00D+00 EMaxC= 1.00D-01 BMatC= 1.41D-06 BMatP= 1.62D-05
 IDIUse=1 WtCom= 1.00D+00 WtEn= 0.00D+00
 Coeff-Com:  0.876D-04-0.138D-03 0.626D-04-0.435D-03-0.731D-03 0.180D-01
 Coeff-Com: -0.214D-01-0.558D-01-0.395D-01 0.171D+00 0.929D+00
 Coeff:      0.876D-04-0.138D-03 0.626D-04-0.435D-03-0.731D-03 0.180D-01
 Coeff:     -0.214D-01-0.558D-01-0.395D-01 0.171D+00 0.929D+00
 Gap=     0.145 Goal=   None    Shift=    0.000
 Gap=     0.176 Goal=   None    Shift=    0.000
 RMSDP=1.46D-05 MaxDP=7.34D-04 DE=-1.12D-05 OVMax= 1.70D-03

 Cycle  12  Pass 1  IDiag  1:
 RMSU=  6.94D-06    CP:  5.20D-01  2.93D+00  1.39D-01  1.04D+00  7.09D-01
                    CP:  1.57D+00  1.69D+00  1.21D+00  1.37D+00  1.50D+00
                    CP:  1.43D+00
 E= -1323.25110643805     Delta-E=       -0.000002429432 Rises=F Damp=F
 DIIS: error= 4.23D-05 at cycle  12 NSaved=  12.
 NSaved=12 IEnMin=12 EnMin= -1323.25110643805     IErMin=12 ErrMin= 4.23D-05
 ErrMax= 4.23D-05  0.00D+00 EMaxC= 1.00D-01 BMatC= 5.74D-07 BMatP= 1.41D-06
 IDIUse=1 WtCom= 1.00D+00 WtEn= 0.00D+00
 Coeff-Com: -0.220D-03 0.317D-03-0.123D-04-0.213D-03-0.216D-03-0.584D-02
 Coeff-Com:  0.622D-02 0.118D-01-0.519D-01-0.214D+00 0.402D+00 0.851D+00
 Coeff:     -0.220D-03 0.317D-03-0.123D-04-0.213D-03-0.216D-03-0.584D-02
 Coeff:      0.622D-02 0.118D-01-0.519D-01-0.214D+00 0.402D+00 0.851D+00
 Gap=     0.145 Goal=   None    Shift=    0.000
 Gap=     0.176 Goal=   None    Shift=    0.000
 RMSDP=1.05D-05 MaxDP=4.93D-04 DE=-2.43D-06 OVMax= 1.37D-03

 Cycle  13  Pass 1  IDiag  1:
 RMSU=  3.71D-06    CP:  5.20D-01  2.93D+00  1.39D-01  1.04D+00  7.09D-01
                    CP:  1.57D+00  1.69D+00  1.21D+00  1.39D+00  1.58D+00
                    CP:  1.82D+00  1.70D+00
 E= -1323.25110754188     Delta-E=       -0.000001103839 Rises=F Damp=F
 DIIS: error= 2.67D-05 at cycle  13 NSaved=  13.
 NSaved=13 IEnMin=13 EnMin= -1323.25110754188     IErMin=13 ErrMin= 2.67D-05
 ErrMax= 2.67D-05  0.00D+00 EMaxC= 1.00D-01 BMatC= 1.65D-07 BMatP= 5.74D-07
 IDIUse=1 WtCom= 1.00D+00 WtEn= 0.00D+00
 Coeff-Com: -0.116D-03 0.169D-03-0.255D-04 0.856D-04 0.132D-03-0.480D-02
 Coeff-Com:  0.500D-02 0.136D-01 0.102D-01-0.549D-01-0.202D+00 0.569D-01
 Coeff-Com:  0.118D+01
 Coeff:     -0.116D-03 0.169D-03-0.255D-04 0.856D-04 0.132D-03-0.480D-02
 Coeff:      0.500D-02 0.136D-01 0.102D-01-0.549D-01-0.202D+00 0.569D-01
 Coeff:      0.118D+01
 Gap=     0.145 Goal=   None    Shift=    0.000
 Gap=     0.176 Goal=   None    Shift=    0.000
 RMSDP=8.03D-06 MaxDP=3.49D-04 DE=-1.10D-06 OVMax= 1.08D-03

 Cycle  14  Pass 1  IDiag  1:
 RMSU=  1.72D-06    CP:  5.20D-01  2.93D+00  1.39D-01  1.04D+00  7.09D-01
                    CP:  1.57D+00  1.70D+00  1.21D+00  1.40D+00  1.60D+00
                    CP:  2.09D+00  2.46D+00  1.67D+00
 E= -1323.25110799670     Delta-E=       -0.000000454811 Rises=F Damp=F
 DIIS: error= 1.39D-05 at cycle  14 NSaved=  14.
 NSaved=14 IEnMin=14 EnMin= -1323.25110799670     IErMin=14 ErrMin= 1.39D-05
 ErrMax= 1.39D-05  0.00D+00 EMaxC= 1.00D-01 BMatC= 5.22D-08 BMatP= 1.65D-07
 IDIUse=1 WtCom= 1.00D+00 WtEn= 0.00D+00
 Coeff-Com:  0.100D-03-0.135D-03-0.915D-05 0.120D-03 0.133D-03 0.130D-02
 Coeff-Com: -0.212D-02-0.169D-02 0.192D-01 0.637D-01-0.159D+00-0.266D+00
 Coeff-Com:  0.128D+00 0.122D+01
 Coeff:      0.100D-03-0.135D-03-0.915D-05 0.120D-03 0.133D-03 0.130D-02
 Coeff:     -0.212D-02-0.169D-02 0.192D-01 0.637D-01-0.159D+00-0.266D+00
 Coeff:      0.128D+00 0.122D+01
 Gap=     0.145 Goal=   None    Shift=    0.000
 Gap=     0.176 Goal=   None    Shift=    0.000
 RMSDP=5.79D-06 MaxDP=2.45D-04 DE=-4.55D-07 OVMax= 7.58D-04

 Cycle  15  Pass 1  IDiag  1:
 RMSU=  6.86D-07    CP:  5.20D-01  2.93D+00  1.39D-01  1.04D+00  7.09D-01
                    CP:  1.57D+00  1.70D+00  1.21D+00  1.40D+00  1.60D+00
                    CP:  2.26D+00  2.97D+00  2.28D+00  2.06D+00
 E= -1323.25110814697     Delta-E=       -0.000000150276 Rises=F Damp=F
 DIIS: error= 5.16D-06 at cycle  15 NSaved=  15.
 NSaved=15 IEnMin=15 EnMin= -1323.25110814697     IErMin=15 ErrMin= 5.16D-06
 ErrMax= 5.16D-06  0.00D+00 EMaxC= 1.00D-01 BMatC= 1.34D-08 BMatP= 5.22D-08
 IDIUse=1 WtCom= 1.00D+00 WtEn= 0.00D+00
 Coeff-Com: -0.346D-04 0.442D-04 0.131D-04-0.165D-04-0.491D-04 0.928D-03
 Coeff-Com: -0.575D-03-0.186D-02-0.389D-02 0.231D-02 0.445D-01 0.130D-01
 Coeff-Com: -0.236D+00-0.698D-01 0.125D+01
 Coeff:     -0.346D-04 0.442D-04 0.131D-04-0.165D-04-0.491D-04 0.928D-03
 Coeff:     -0.575D-03-0.186D-02-0.389D-02 0.231D-02 0.445D-01 0.130D-01
 Coeff:     -0.236D+00-0.698D-01 0.125D+01
 Gap=     0.145 Goal=   None    Shift=    0.000
 Gap=     0.176 Goal=   None    Shift=    0.000
 RMSDP=2.50D-06 MaxDP=1.44D-04 DE=-1.50D-07 OVMax= 3.08D-04

 Cycle  16  Pass 1  IDiag  1:
 RMSU=  1.22D-06    CP:  5.20D-01  2.93D+00  1.39D-01  1.04D+00  7.09D-01
                    CP:  1.57D+00  1.70D+00  1.21D+00  1.41D+00  1.61D+00
                    CP:  2.33D+00  3.00D+00  2.50D+00  2.72D+00  1.63D+00
 E= -1323.25110817272     Delta-E=       -0.000000025743 Rises=F Damp=F
 DIIS: error= 1.90D-06 at cycle  16 NSaved=  16.
 NSaved=16 IEnMin=16 EnMin= -1323.25110817272     IErMin=16 ErrMin= 1.90D-06
 ErrMax= 1.90D-06  0.00D+00 EMaxC= 1.00D-01 BMatC= 1.93D-09 BMatP= 1.34D-08
 IDIUse=1 WtCom= 1.00D+00 WtEn= 0.00D+00
 Coeff-Com:  0.187D-04-0.262D-04 0.830D-06-0.221D-04-0.420D-05-0.130D-03
 Coeff-Com:  0.228D-03-0.634D-04-0.408D-02-0.103D-01 0.411D-01 0.445D-01
 Coeff-Com: -0.885D-01-0.220D+00 0.302D+00 0.935D+00
 Coeff:      0.187D-04-0.262D-04 0.830D-06-0.221D-04-0.420D-05-0.130D-03
 Coeff:      0.228D-03-0.634D-04-0.408D-02-0.103D-01 0.411D-01 0.445D-01
 Coeff:     -0.885D-01-0.220D+00 0.302D+00 0.935D+00
 Gap=     0.145 Goal=   None    Shift=    0.000
 Gap=     0.176 Goal=   None    Shift=    0.000
 RMSDP=8.04D-07 MaxDP=3.88D-05 DE=-2.57D-08 OVMax= 9.21D-05

 Cycle  17  Pass 1  IDiag  1:
 RMSU=  1.53D-07    CP:  5.20D-01  2.93D+00  1.39D-01  1.04D+00  7.09D-01
                    CP:  1.57D+00  1.70D+00  1.21D+00  1.41D+00  1.62D+00
                    CP:  2.35D+00  3.00D+00  2.57D+00  2.94D+00  2.02D+00
                    CP:  1.34D+00
 E= -1323.25110817572     Delta-E=       -0.000000003003 Rises=F Damp=F
 DIIS: error= 9.46D-07 at cycle  17 NSaved=  17.
 NSaved=17 IEnMin=17 EnMin= -1323.25110817572     IErMin=17 ErrMin= 9.46D-07
 ErrMax= 9.46D-07  0.00D+00 EMaxC= 1.00D-01 BMatC= 6.50D-10 BMatP= 1.93D-09
 IDIUse=1 WtCom= 1.00D+00 WtEn= 0.00D+00
 Coeff-Com: -0.325D-05 0.444D-05-0.211D-05-0.176D-05 0.391D-05-0.174D-03
 Coeff-Com:  0.186D-03 0.331D-03 0.510D-03-0.113D-02-0.680D-02-0.436D-02
 Coeff-Com:  0.445D-01 0.188D-01-0.263D+00 0.113D+00 0.110D+01
 Coeff:     -0.325D-05 0.444D-05-0.211D-05-0.176D-05 0.391D-05-0.174D-03
 Coeff:      0.186D-03 0.331D-03 0.510D-03-0.113D-02-0.680D-02-0.436D-02
 Coeff:      0.445D-01 0.188D-01-0.263D+00 0.113D+00 0.110D+01
 Gap=     0.145 Goal=   None    Shift=    0.000
 Gap=     0.176 Goal=   None    Shift=    0.000
 RMSDP=3.33D-07 MaxDP=1.33D-05 DE=-3.00D-09 OVMax= 4.28D-05

 Cycle  18  Pass 1  IDiag  1:
 RMSU=  1.22D-07    CP:  5.20D-01  2.93D+00  1.39D-01  1.04D+00  7.09D-01
                    CP:  1.57D+00  1.70D+00  1.21D+00  1.41D+00  1.62D+00
                    CP:  2.35D+00  3.00D+00  2.59D+00  3.00D+00  2.16D+00
                    CP:  1.47D+00  1.70D+00
 E= -1323.25110817632     Delta-E=       -0.000000000605 Rises=F Damp=F
 DIIS: error= 3.30D-07 at cycle  18 NSaved=  18.
 NSaved=18 IEnMin=18 EnMin= -1323.25110817632     IErMin=18 ErrMin= 3.30D-07
 ErrMax= 3.30D-07  0.00D+00 EMaxC= 1.00D-01 BMatC= 5.33D-11 BMatP= 6.50D-10
 IDIUse=1 WtCom= 1.00D+00 WtEn= 0.00D+00
 Coeff-Com: -0.388D-06 0.659D-06-0.236D-06 0.295D-05-0.142D-05 0.593D-04
 Coeff-Com: -0.901D-04-0.109D-03 0.356D-03 0.246D-02-0.480D-02-0.543D-02
 Coeff-Com:  0.328D-02 0.360D-01-0.243D-01-0.146D+00-0.113D+00 0.125D+01
 Coeff:     -0.388D-06 0.659D-06-0.236D-06 0.295D-05-0.142D-05 0.593D-04
 Coeff:     -0.901D-04-0.109D-03 0.356D-03 0.246D-02-0.480D-02-0.543D-02
 Coeff:      0.328D-02 0.360D-01-0.243D-01-0.146D+00-0.113D+00 0.125D+01
 Gap=     0.145 Goal=   None    Shift=    0.000
 Gap=     0.176 Goal=   None    Shift=    0.000
 RMSDP=1.25D-07 MaxDP=1.04D-05 DE=-6.05D-10 OVMax= 1.88D-05

 Cycle  19  Pass 1  IDiag  1:
 RMSU=  4.14D-08    CP:  5.20D-01  2.93D+00  1.39D-01  1.04D+00  7.09D-01
                    CP:  1.57D+00  1.70D+00  1.21D+00  1.41D+00  1.62D+00
                    CP:  2.35D+00  3.00D+00  2.59D+00  3.00D+00  2.22D+00
                    CP:  1.51D+00  2.12D+00  1.47D+00
 E= -1323.25110817644     Delta-E=       -0.000000000115 Rises=F Damp=F
 DIIS: error= 1.70D-07 at cycle  19 NSaved=  19.
 NSaved=19 IEnMin=19 EnMin= -1323.25110817644     IErMin=19 ErrMin= 1.70D-07
 ErrMax= 1.70D-07  0.00D+00 EMaxC= 1.00D-01 BMatC= 6.14D-12 BMatP= 5.33D-11
 IDIUse=1 WtCom= 1.00D+00 WtEn= 0.00D+00
 Coeff-Com: -0.270D-06 0.403D-06 0.406D-06 0.677D-06-0.671D-06 0.181D-04
 Coeff-Com: -0.139D-04-0.380D-04-0.646D-04 0.700D-04 0.964D-03 0.583D-03
 Coeff-Com: -0.686D-02-0.201D-02 0.428D-01-0.363D-01-0.161D+00 0.433D-01
 Coeff-Com:  0.112D+01
 Coeff:     -0.270D-06 0.403D-06 0.406D-06 0.677D-06-0.671D-06 0.181D-04
 Coeff:     -0.139D-04-0.380D-04-0.646D-04 0.700D-04 0.964D-03 0.583D-03
 Coeff:     -0.686D-02-0.201D-02 0.428D-01-0.363D-01-0.161D+00 0.433D-01
 Coeff:      0.112D+01
 Gap=     0.145 Goal=   None    Shift=    0.000
 Gap=     0.176 Goal=   None    Shift=    0.000
 RMSDP=5.26D-08 MaxDP=4.57D-06 DE=-1.15D-10 OVMax= 8.27D-06

 Cycle  20  Pass 1  IDiag  1:
 RMSU=  1.17D-08    CP:  5.20D-01  2.93D+00  1.39D-01  1.04D+00  7.09D-01
                    CP:  1.57D+00  1.70D+00  1.21D+00  1.41D+00  1.62D+00
                    CP:  2.35D+00  3.00D+00  2.60D+00  3.00D+00  2.24D+00
                    CP:  1.53D+00  2.28D+00  1.63D+00  1.70D+00
 E= -1323.25110817645     Delta-E=       -0.000000000011 Rises=F Damp=F
 DIIS: error= 8.85D-08 at cycle  20 NSaved=  20.
 NSaved=20 IEnMin=20 EnMin= -1323.25110817645     IErMin=20 ErrMin= 8.85D-08
 ErrMax= 8.85D-08  0.00D+00 EMaxC= 1.00D-01 BMatC= 1.33D-12 BMatP= 6.14D-12
 IDIUse=1 WtCom= 1.00D+00 WtEn= 0.00D+00
 Coeff-Com:  0.320D-06-0.437D-06 0.499D-07-0.373D-06 0.896D-06-0.162D-04
 Coeff-Com:  0.210D-04 0.298D-04-0.402D-04-0.533D-03 0.859D-03 0.888D-03
 Coeff-Com:  0.141D-03-0.665D-02 0.248D-02 0.261D-01 0.326D-01-0.268D+00
 Coeff-Com:  0.732D-01 0.114D+01
 Coeff:      0.320D-06-0.437D-06 0.499D-07-0.373D-06 0.896D-06-0.162D-04
 Coeff:      0.210D-04 0.298D-04-0.402D-04-0.533D-03 0.859D-03 0.888D-03
 Coeff:      0.141D-03-0.665D-02 0.248D-02 0.261D-01 0.326D-01-0.268D+00
 Coeff:      0.732D-01 0.114D+01
 Gap=     0.145 Goal=   None    Shift=    0.000
 Gap=     0.176 Goal=   None    Shift=    0.000
 RMSDP=2.47D-08 MaxDP=1.80D-06 DE=-1.09D-11 OVMax= 3.73D-06

 Cycle  21  Pass 1  IDiag  1:
 Restarting incremental Fock formation.
 E= -1323.25110817757     Delta-E=       -0.000000001121 Rises=F Damp=F
 DIIS: error= 4.67D-08 at cycle  21 NSaved=  20.
 NSaved=20 IEnMin=20 EnMin= -1323.25110817757     IErMin=20 ErrMin= 4.67D-08
 ErrMax= 4.67D-08  0.00D+00 EMaxC= 1.00D-01 BMatC= 4.30D-13 BMatP= 1.33D-12
 IDIUse=1 WtCom= 1.00D+00 WtEn= 0.00D+00
 Coeff-Com: -0.113D-07-0.641D-07-0.114D-06 0.110D-06-0.305D-05 0.133D-05
 Coeff-Com:  0.115D-04 0.195D-05 0.159D-04-0.246D-03-0.689D-04 0.125D-02
 Coeff-Com:  0.835D-03-0.894D-02 0.782D-02 0.252D-01 0.724D-02-0.241D+00
 Coeff-Com: -0.253D-01 0.123D+01
 Coeff:     -0.113D-07-0.641D-07-0.114D-06 0.110D-06-0.305D-05 0.133D-05
 Coeff:      0.115D-04 0.195D-05 0.159D-04-0.246D-03-0.689D-04 0.125D-02
 Coeff:      0.835D-03-0.894D-02 0.782D-02 0.252D-01 0.724D-02-0.241D+00
 Coeff:     -0.253D-01 0.123D+01
 Gap=     0.145 Goal=   None    Shift=    0.000
 Gap=     0.176 Goal=   None    Shift=    0.000
 RMSDP=1.33D-08 MaxDP=7.50D-07 DE=-1.12D-09 OVMax= 1.91D-06

 Cycle  22  Pass 1  IDiag  1:
 RMSU=  1.33D-08    CP:  1.00D+00
 E= -1323.25110817756     Delta-E=        0.000000000005 Rises=F Damp=F
 DIIS: error= 2.29D-08 at cycle  22 NSaved=  20.
 NSaved=20 IEnMin=19 EnMin= -1323.25110817757     IErMin=20 ErrMin= 2.29D-08
 ErrMax= 2.29D-08  0.00D+00 EMaxC= 1.00D-01 BMatC= 6.48D-14 BMatP= 4.30D-13
 IDIUse=1 WtCom= 1.00D+00 WtEn= 0.00D+00
 Coeff-Com: -0.199D-07 0.506D-07-0.173D-06 0.279D-05-0.320D-05-0.610D-05
 Coeff-Com:  0.931D-05 0.952D-04-0.168D-03-0.178D-03 0.232D-04 0.110D-02
 Coeff-Com: -0.405D-03-0.442D-02-0.596D-02 0.507D-01-0.162D-01-0.211D+00
 Coeff-Com:  0.203D-01 0.117D+01
 Coeff:     -0.199D-07 0.506D-07-0.173D-06 0.279D-05-0.320D-05-0.610D-05
 Coeff:      0.931D-05 0.952D-04-0.168D-03-0.178D-03 0.232D-04 0.110D-02
 Coeff:     -0.405D-03-0.442D-02-0.596D-02 0.507D-01-0.162D-01-0.211D+00
 Coeff:      0.203D-01 0.117D+01
 Gap=     0.145 Goal=   None    Shift=    0.000
 Gap=     0.176 Goal=   None    Shift=    0.000
 RMSDP=6.00D-09 MaxDP=2.76D-07 DE= 5.46D-12 OVMax= 8.58D-07

 SCF Done:  E(UwB97XD) =  -1323.25110818     A.U. after   22 cycles
            NFock= 22  Conv=0.60D-08     -V/T= 3.6219
 <Sx>= 0.0000 <Sy>= 0.0000 <Sz>= 0.5000 <S**2>= 0.7687 S= 0.5093
 <L.S>=  0.00000000000    
 KE= 5.046968843766D+02 PE=-6.934033193926D+03 EE= 3.065885084011D+03
 Annihilation of the first spin contaminant:
 S**2 before annihilation     0.7687,   after     0.7502
 Leave Link  502 at Tue Feb 25 20:29:23 2025, MaxMem=  2097152000 cpu:             588.2 elap:             148.9
 (Enter /nvme/h/buildsets/eb_nepheli/software/Gaussian/16.C.01-AVX2/g16/l508.exe)
 QCSCF skips out because SCF is already converged.
 Leave Link  508 at Tue Feb 25 20:29:23 2025, MaxMem=  2097152000 cpu:               0.0 elap:               0.0
 (Enter /nvme/h/buildsets/eb_nepheli/software/Gaussian/16.C.01-AVX2/g16/l601.exe)
 Copying SCF densities to generalized density rwf, IOpCl= 1 IROHF=0.

 **********************************************************************

            Population analysis using the SCF Density.

 **********************************************************************

 Orbital symmetries:
 Alpha Orbitals:
       Occupied  (A) (A) (B) (B) (A) (B) (A) (A) (B) (B) (B) (A)
                 (A) (B) (A) (B) (A) (B) (A) (B) (B) (A) (A) (B)
                 (A) (A) (B) (B) (A) (B) (A) (B) (A) (B) (B) (A)
                 (A) (B) (A) (A) (B) (A) (B) (A) (B) (A) (A) (B)
                 (B) (A) (B) (A) (B) (B) (A) (A) (A) (B) (B) (B)
                 (A) (A) (A) (B) (A) (B) (B) (B) (A) (B) (A) (A)
                 (B) (A) (B) (B) (A) (B) (A) (A) (B) (A) (B) (B)
                 (A) (A)
       Virtual   (A) (A) (B) (B) (A) (B) (B) (B) (A) (B) (A) (B)
                 (A) (B) (A) (A) (A) (B) (A) (A) (A) (B) (B) (B)
                 (A) (A) (B) (B) (B) (B) (A) (B) (A) (A) (B) (A)
                 (B) (A) (A) (B) (A) (B) (A) (B) (B) (A) (B) (B)
                 (A) (A) (B) (A) (A) (B) (B) (A) (A) (A) (B) (B)
                 (A) (B) (B) (A) (B) (B) (A) (B) (A) (B) (A) (B)
                 (B) (A) (A) (A) (B) (A) (B) (B) (A) (A) (A) (B)
                 (A) (B) (B) (A) (B) (A) (B) (A) (A) (A) (B) (B)
                 (B) (A) (B) (A) (A) (A) (B) (B) (B) (A) (B) (A)
                 (B) (A) (B) (A) (A) (B) (B) (A) (A) (B) (B) (A)
                 (A) (B) (A) (A) (B) (B) (B) (A) (A) (B) (A) (A)
                 (B) (A) (B) (A) (B) (A) (B) (B) (A) (B) (B) (A)
                 (A) (A) (B) (B) (A) (B) (B) (A) (A) (B) (A) (A)
                 (B) (B) (B) (A) (B) (A) (A) (B) (A) (B) (B) (B)
                 (A) (A) (B) (A) (B) (A) (B) (B) (B) (A) (A) (A)
                 (B) (A) (B) (A) (A) (B) (B) (A) (A) (B) (B) (A)
                 (A)
 Beta  Orbitals:
       Occupied  (A) (A) (B) (A) (B) (B) (A) (A) (B) (B) (B) (A)
                 (A) (B) (A) (B) (A) (B) (B) (A) (A) (A) (B) (B)
                 (A) (A) (B) (B) (A) (B) (B) (A) (A) (B) (B) (A)
                 (A) (B) (A) (A) (B) (A) (B) (A) (B) (A) (A) (B)
                 (B) (A) (B) (A) (B) (B) (A) (A) (A) (B) (B) (A)
                 (B) (A) (A) (B) (A) (B) (B) (B) (A) (B) (A) (B)
                 (A) (A) (B) (B) (A) (B) (A) (A) (B) (A) (B) (B)
                 (A)
       Virtual   (A) (A) (A) (B) (B) (A) (B) (B) (B) (B) (A) (A)
                 (B) (A) (B) (A) (A) (A) (B) (A) (A) (A) (B) (B)
                 (B) (A) (A) (B) (B) (B) (B) (A) (B) (A) (A) (B)
                 (A) (B) (A) (A) (B) (A) (B) (A) (B) (B) (A) (B)
                 (B) (A) (A) (B) (A) (A) (B) (A) (B) (A) (A) (B)
                 (A) (B) (B) (B) (A) (B) (B) (A) (B) (A) (B) (A)
                 (B) (B) (A) (A) (B) (A) (B) (A) (B) (A) (A) (A)
                 (B) (A) (B) (B) (A) (B) (A) (B) (A) (A) (A) (B)
                 (B) (B) (A) (B) (A) (A) (A) (B) (B) (B) (A) (B)
                 (A) (B) (A) (B) (A) (A) (B) (B) (A) (A) (B) (B)
                 (A) (A) (A) (B) (B) (A) (B) (A) (B) (A) (B) (A)
                 (A) (B) (A) (B) (B) (A) (A) (B) (A) (B) (B) (B)
                 (A) (A) (A) (B) (B) (A) (B) (B) (A) (A) (B) (A)
                 (A) (B) (B) (B) (A) (B) (A) (A) (B) (A) (B) (B)
                 (B) (A) (A) (B) (A) (B) (A) (B) (B) (A) (B) (A)
                 (A) (B) (A) (B) (A) (A) (B) (B) (A) (A) (B) (B)
                 (A) (A)
 The electronic state is 2-A.
 Alpha  occ. eigenvalues --   -3.85041  -3.84587  -3.84565  -3.84562  -3.84556
 Alpha  occ. eigenvalues --   -3.84306  -3.84305  -3.84300  -3.84299  -2.43368
 Alpha  occ. eigenvalues --   -2.43247  -2.43042  -2.42951  -2.42907  -2.42853
 Alpha  occ. eigenvalues --   -2.42810  -2.42782  -2.42708  -2.42676  -2.42674
 Alpha  occ. eigenvalues --   -2.42657  -2.42655  -2.42648  -2.42602  -2.42533
 Alpha  occ. eigenvalues --   -2.42524  -2.42502  -2.42498  -2.42433  -2.42427
 Alpha  occ. eigenvalues --   -2.42382  -2.42380  -2.42367  -2.42354  -2.42341
 Alpha  occ. eigenvalues --   -2.42337  -0.46886  -0.46657  -0.46430  -0.46422
 Alpha  occ. eigenvalues --   -0.46236  -0.45646  -0.45580  -0.45255  -0.45060
 Alpha  occ. eigenvalues --   -0.45047  -0.44730  -0.44577  -0.44521  -0.43739
 Alpha  occ. eigenvalues --   -0.43334  -0.43288  -0.43189  -0.42799  -0.42768
 Alpha  occ. eigenvalues --   -0.42407  -0.42358  -0.41716  -0.41399  -0.41004
 Alpha  occ. eigenvalues --   -0.40989  -0.40888  -0.40799  -0.40708  -0.40611
 Alpha  occ. eigenvalues --   -0.40491  -0.40278  -0.40197  -0.39856  -0.39836
 Alpha  occ. eigenvalues --   -0.39765  -0.39673  -0.39657  -0.39577  -0.39387
 Alpha  occ. eigenvalues --   -0.39297  -0.38920  -0.38793  -0.38745  -0.38547
 Alpha  occ. eigenvalues --   -0.38339  -0.38050  -0.29639  -0.27735  -0.23383
 Alpha  occ. eigenvalues --   -0.19011
 Alpha virt. eigenvalues --   -0.04517  -0.03537  -0.03313  -0.02333   0.00422
 Alpha virt. eigenvalues --    0.02631   0.02835   0.04041   0.05107   0.05347
 Alpha virt. eigenvalues --    0.05652   0.07651   0.07732   0.10141   0.10689
 Alpha virt. eigenvalues --    0.10861   0.11998   0.13406   0.13493   0.13513
 Alpha virt. eigenvalues --    0.13703   0.14540   0.15062   0.15461   0.15572
 Alpha virt. eigenvalues --    0.15657   0.17088   0.17837   0.18924   0.19751
 Alpha virt. eigenvalues --    0.20758   0.23354   0.25549   0.26762   0.26876
 Alpha virt. eigenvalues --    0.27102   0.27936   0.28573   0.28770   0.29390
 Alpha virt. eigenvalues --    0.29443   0.30093   0.31367   0.32245   0.32614
 Alpha virt. eigenvalues --    0.33998   0.34697   0.36103   0.36418   0.36529
 Alpha virt. eigenvalues --    0.37660   0.38530   0.40981   0.41505   0.42459
 Alpha virt. eigenvalues --    0.42497   0.44292   0.45397   0.47223   0.48971
 Alpha virt. eigenvalues --    0.49045   0.49576   0.49596   0.50951   0.53143
 Alpha virt. eigenvalues --    0.56409   0.56964   0.59010   0.59200   0.61860
 Alpha virt. eigenvalues --    0.62410   0.64393   0.64784   0.65131   0.65966
 Alpha virt. eigenvalues --    0.67198   0.67224   0.68304   0.68333   0.70646
 Alpha virt. eigenvalues --    0.71007   0.71817   0.72462   0.74277   0.75517
 Alpha virt. eigenvalues --    0.76521   0.77027   0.77695   0.78793   0.80682
 Alpha virt. eigenvalues --    0.81609   0.81798   0.82112   0.82272   0.82796
 Alpha virt. eigenvalues --    0.84031   0.84306   0.84873   0.85528   0.85887
 Alpha virt. eigenvalues --    0.86719   0.89019   0.89152   0.89771   0.92863
 Alpha virt. eigenvalues --    0.95188   0.97203   1.01389   1.03084   1.03890
 Alpha virt. eigenvalues --    1.08186   1.11020   2.14280   2.24187   2.28470
 Alpha virt. eigenvalues --    2.32330   2.33626   2.34833   2.36215   2.38033
 Alpha virt. eigenvalues --    2.47126   2.67344   2.67361   2.67409   2.67414
 Alpha virt. eigenvalues --    2.67521   2.67562   2.67563   2.67602   2.67637
 Alpha virt. eigenvalues --    2.67655   2.67656   2.67671   2.67733   2.67743
 Alpha virt. eigenvalues --    2.67745   2.67746   2.67754   2.67779   2.67845
 Alpha virt. eigenvalues --    2.67850   2.67851   2.67874   2.67917   2.68021
 Alpha virt. eigenvalues --    2.68031   2.68038   2.68083   2.68090   2.68096
 Alpha virt. eigenvalues --    2.68239   2.68257   2.68273   2.68327   2.68368
 Alpha virt. eigenvalues --    2.68405   2.68436   2.68520   2.68544   2.68698
 Alpha virt. eigenvalues --    2.68817   2.69046   2.69100   2.69193   2.69340
 Alpha virt. eigenvalues --    2.69359   2.69535   2.69748   2.69786   2.69871
 Alpha virt. eigenvalues --    2.69894   2.70041   2.70055   2.70145   2.70282
 Alpha virt. eigenvalues --    2.70420   2.70437   2.70500   2.70660   2.71578
 Alpha virt. eigenvalues --    2.72357   2.72755   2.72979   2.77436  54.31452
 Alpha virt. eigenvalues --   54.37868  54.41682  54.43503  54.45868  54.45964
 Alpha virt. eigenvalues --   54.48385  54.48620  54.57961
  Beta  occ. eigenvalues --   -3.84915  -3.84578  -3.84572  -3.84540  -3.84531
  Beta  occ. eigenvalues --   -3.84220  -3.84220  -3.84214  -3.84214  -2.43190
  Beta  occ. eigenvalues --   -2.43074  -2.43011  -2.42931  -2.42899  -2.42825
  Beta  occ. eigenvalues --   -2.42794  -2.42776  -2.42699  -2.42668  -2.42657
  Beta  occ. eigenvalues --   -2.42647  -2.42615  -2.42609  -2.42582  -2.42483
  Beta  occ. eigenvalues --   -2.42467  -2.42449  -2.42438  -2.42377  -2.42369
  Beta  occ. eigenvalues --   -2.42314  -2.42314  -2.42293  -2.42279  -2.42266
  Beta  occ. eigenvalues --   -2.42263  -0.46870  -0.46580  -0.46391  -0.46231
  Beta  occ. eigenvalues --   -0.46187  -0.45598  -0.45510  -0.45185  -0.44975
  Beta  occ. eigenvalues --   -0.44880  -0.44670  -0.44491  -0.44458  -0.43645
  Beta  occ. eigenvalues --   -0.43252  -0.43206  -0.43064  -0.42664  -0.42647
  Beta  occ. eigenvalues --   -0.42279  -0.42253  -0.41645  -0.41320  -0.40946
  Beta  occ. eigenvalues --   -0.40905  -0.40772  -0.40663  -0.40632  -0.40565
  Beta  occ. eigenvalues --   -0.40388  -0.40251  -0.40125  -0.39819  -0.39747
  Beta  occ. eigenvalues --   -0.39663  -0.39590  -0.39570  -0.39444  -0.39334
  Beta  occ. eigenvalues --   -0.39199  -0.38861  -0.38736  -0.38680  -0.38468
  Beta  occ. eigenvalues --   -0.38331  -0.37752  -0.28412  -0.26226  -0.23369
  Beta virt. eigenvalues --   -0.05776  -0.04427  -0.03217  -0.03190  -0.01856
  Beta virt. eigenvalues --    0.00454   0.03427   0.03741   0.04715   0.05378
  Beta virt. eigenvalues --    0.05669   0.05826   0.07699   0.07766   0.10212
  Beta virt. eigenvalues --    0.10729   0.11413   0.12285   0.13484   0.13557
  Beta virt. eigenvalues --    0.13789   0.13980   0.14371   0.15308   0.15362
  Beta virt. eigenvalues --    0.15577   0.15652   0.17299   0.18586   0.19374
  Beta virt. eigenvalues --    0.19795   0.20720   0.23273   0.25518   0.26647
  Beta virt. eigenvalues --    0.26886   0.27122   0.28023   0.28483   0.28784
  Beta virt. eigenvalues --    0.29312   0.29737   0.30177   0.31514   0.32315
  Beta virt. eigenvalues --    0.32597   0.34088   0.34697   0.36127   0.36545
  Beta virt. eigenvalues --    0.36876   0.37703   0.38553   0.41254   0.41647
  Beta virt. eigenvalues --    0.42606   0.42703   0.44446   0.45628   0.47524
  Beta virt. eigenvalues --    0.49070   0.49236   0.49740   0.49767   0.51175
  Beta virt. eigenvalues --    0.53174   0.56522   0.56975   0.59098   0.59278
  Beta virt. eigenvalues --    0.61964   0.62546   0.64506   0.64757   0.65312
  Beta virt. eigenvalues --    0.66062   0.67350   0.67398   0.68409   0.68432
  Beta virt. eigenvalues --    0.70683   0.70996   0.71874   0.72532   0.74339
  Beta virt. eigenvalues --    0.75545   0.76548   0.77097   0.77748   0.78858
  Beta virt. eigenvalues --    0.80758   0.81698   0.81825   0.82203   0.82412
  Beta virt. eigenvalues --    0.82882   0.84060   0.84409   0.84871   0.85535
  Beta virt. eigenvalues --    0.85925   0.86773   0.89130   0.89268   0.89887
  Beta virt. eigenvalues --    0.92963   0.95203   0.97287   1.01426   1.03103
  Beta virt. eigenvalues --    1.04002   1.08239   1.11123   2.14399   2.24369
  Beta virt. eigenvalues --    2.28663   2.32528   2.33648   2.34839   2.36217
  Beta virt. eigenvalues --    2.38092   2.47173   2.67441   2.67441   2.67449
  Beta virt. eigenvalues --    2.67458   2.67517   2.67579   2.67581   2.67619
  Beta virt. eigenvalues --    2.67665   2.67668   2.67685   2.67711   2.67757
  Beta virt. eigenvalues --    2.67772   2.67775   2.67790   2.67795   2.67802
  Beta virt. eigenvalues --    2.67885   2.67902   2.67910   2.67922   2.67963
  Beta virt. eigenvalues --    2.68046   2.68049   2.68111   2.68121   2.68157
  Beta virt. eigenvalues --    2.68181   2.68271   2.68295   2.68302   2.68377
  Beta virt. eigenvalues --    2.68394   2.68451   2.68481   2.68549   2.68581
  Beta virt. eigenvalues --    2.68734   2.68845   2.69081   2.69170   2.69242
  Beta virt. eigenvalues --    2.69370   2.69421   2.69558   2.69764   2.69830
  Beta virt. eigenvalues --    2.69883   2.69932   2.70078   2.70123   2.70205
  Beta virt. eigenvalues --    2.70313   2.70448   2.70505   2.70568   2.70674
  Beta virt. eigenvalues --    2.71648   2.72440   2.72759   2.72985   2.77489
  Beta virt. eigenvalues --   54.31431  54.37822  54.41636  54.43458  54.45877
  Beta virt. eigenvalues --   54.45990  54.48383  54.48610  54.57929
          Condensed to atoms (all electrons):
               1          2          3          4          5          6
     1  Ag  18.594951   0.012237  -0.015382   0.017180   0.081604   0.007802
     2  Ag   0.012237  18.595088   0.017191  -0.015382   0.007789   0.081613
     3  Ag  -0.015382   0.017191  18.595088   0.012237   0.081613   0.007789
     4  Ag   0.017180  -0.015382   0.012237  18.594951   0.007802   0.081604
     5  Ag   0.081604   0.007789   0.081613   0.007802  18.445593   0.011555
     6  Ag   0.007802   0.081613   0.007789   0.081604   0.011555  18.445593
     7  Ag   0.139825   0.139734   0.139734   0.139825   0.041717   0.041717
     8  Ag   0.034082   0.034124  -0.013822  -0.013832   0.134792   0.134791
     9  Ag  -0.013832  -0.013822   0.034124   0.034082   0.134791   0.134792
               7          8          9
     1  Ag   0.139825   0.034082  -0.013832
     2  Ag   0.139734   0.034124  -0.013822
     3  Ag   0.139734  -0.013822   0.034124
     4  Ag   0.139825  -0.013832   0.034082
     5  Ag   0.041717   0.134792   0.134791
     6  Ag   0.041717   0.134791   0.134792
     7  Ag  18.879454  -0.005906  -0.005906
     8  Ag  -0.005906  18.547235   0.229139
     9  Ag  -0.005906   0.229139  18.547235
          Atomic-Atomic Spin Densities.
               1          2          3          4          5          6
     1  Ag   0.286383  -0.073232  -0.036776   0.014969   0.045762  -0.007888
     2  Ag  -0.073232   0.286591   0.014980  -0.036776  -0.007901   0.045738
     3  Ag  -0.036776   0.014980   0.286591  -0.073232   0.045738  -0.007901
     4  Ag   0.014969  -0.036776  -0.073232   0.286383  -0.007888   0.045762
     5  Ag   0.045762  -0.007901   0.045738  -0.007888  -0.026020   0.001582
     6  Ag  -0.007888   0.045738  -0.007901   0.045762   0.001582  -0.026020
     7  Ag  -0.007810  -0.007875  -0.007875  -0.007810   0.006146   0.006146
     8  Ag   0.010363   0.010380  -0.005116  -0.005112  -0.004873  -0.004885
     9  Ag  -0.005112  -0.005116   0.010380   0.010363  -0.004885  -0.004873
               7          8          9
     1  Ag  -0.007810   0.010363  -0.005112
     2  Ag  -0.007875   0.010380  -0.005116
     3  Ag  -0.007875  -0.005116   0.010380
     4  Ag  -0.007810  -0.005112   0.010363
     5  Ag   0.006146  -0.004873  -0.004885
     6  Ag   0.006146  -0.004885  -0.004873
     7  Ag  -0.044638   0.001737   0.001737
     8  Ag   0.001737   0.019145   0.007375
     9  Ag   0.001737   0.007375   0.019145
 Mulliken charges and spin densities:
               1          2
     1  Ag   0.141531   0.226659
     2  Ag   0.141428   0.226788
     3  Ag   0.141428   0.226788
     4  Ag   0.141531   0.226659
     5  Ag   0.052742   0.047660
     6  Ag   0.052742   0.047660
     7  Ag  -0.510196  -0.060243
     8  Ag  -0.080603   0.029014
     9  Ag  -0.080603   0.029014
 Sum of Mulliken charges =  -0.00000   1.00000
 Mulliken charges and spin densities with hydrogens summed into heavy atoms:
               1          2
     1  Ag   0.141531   0.226659
     2  Ag   0.141428   0.226788
     3  Ag   0.141428   0.226788
     4  Ag   0.141531   0.226659
     5  Ag   0.052742   0.047660
     6  Ag   0.052742   0.047660
     7  Ag  -0.510196  -0.060243
     8  Ag  -0.080603   0.029014
     9  Ag  -0.080603   0.029014
 Electronic spatial extent (au):  <R**2>=           4087.4625
 Charge=              0.0000 electrons
 Dipole moment (field-independent basis, Debye):
    X=              0.0000    Y=             -0.0000    Z=              0.1787  Tot=              0.1787
 Quadrupole moment (field-independent basis, Debye-Ang):
   XX=           -166.8321   YY=           -173.8042   ZZ=           -181.2986
   XY=             -0.0028   XZ=             -0.0000   YZ=             -0.0000
 Traceless Quadrupole moment (field-independent basis, Debye-Ang):
   XX=              7.1462   YY=              0.1741   ZZ=             -7.3203
   XY=             -0.0028   XZ=             -0.0000   YZ=             -0.0000
 Octapole moment (field-independent basis, Debye-Ang**2):
  XXX=             -0.0000  YYY=              0.0000  ZZZ=              0.4875  XYY=              0.0000
  XXY=              0.0000  XXZ=              8.3982  XZZ=             -0.0000  YZZ=              0.0000
  YYZ=              0.4226  XYZ=             -0.0003
 Hexadecapole moment (field-independent basis, Debye-Ang**3):
 XXXX=          -3054.6630 YYYY=          -2460.9665 ZZZZ=          -1457.0945 XXXY=             -0.0468
 XXXZ=             -0.0000 YYYX=             -0.0264 YYYZ=             -0.0000 ZZZX=              0.0000
 ZZZY=              0.0000 XXYY=           -938.3991 XXZZ=           -741.7397 YYZZ=           -663.1566
 XXYZ=              0.0000 YYXZ=             -0.0000 ZZXY=             -0.0118
 N-N= 2.040200117361D+03 E-N=-6.934033194083D+03  KE= 5.046968843766D+02
 Symmetry A    KE= 2.546398317885D+02
 Symmetry B    KE= 2.500570525881D+02
 Symmetry A    SP= 1.000000000000D+00
 Symmetry B    SP= 2.180310983805D-14
                          Isotropic Fermi Contact Couplings
        Atom                 a.u.       MegaHertz       Gauss      10(-4) cm-1
     1  Ag(107             0.00008      -0.01441      -0.00514      -0.00481
     2  Ag(107             0.00008      -0.01442      -0.00515      -0.00481
     3  Ag(107             0.00008      -0.01442      -0.00515      -0.00481
     4  Ag(107             0.00008      -0.01441      -0.00514      -0.00481
     5  Ag(107            -0.00002       0.00274       0.00098       0.00091
     6  Ag(107            -0.00002       0.00274       0.00098       0.00091
     7  Ag(107            -0.00001       0.00220       0.00079       0.00073
     8  Ag(107            -0.00000       0.00012       0.00004       0.00004
     9  Ag(107            -0.00000       0.00012       0.00004       0.00004
 --------------------------------------------------------
       Center         ----  Spin Dipole Couplings  ----
                      3XX-RR        3YY-RR        3ZZ-RR
 --------------------------------------------------------
     1   Atom       -0.002712     -0.009437      0.012149
     2   Atom       -0.002715     -0.009438      0.012152
     3   Atom       -0.002715     -0.009438      0.012152
     4   Atom       -0.002712     -0.009437      0.012149
     5   Atom        0.014779     -0.008882     -0.005896
     6   Atom        0.014779     -0.008882     -0.005896
     7   Atom        0.009877      0.015140     -0.025017
     8   Atom       -0.004267      0.008523     -0.004256
     9   Atom       -0.004267      0.008523     -0.004256
 --------------------------------------------------------
                        XY            XZ            YZ
 --------------------------------------------------------
     1   Atom        0.004120     -0.006450     -0.004764
     2   Atom       -0.004121     -0.006447      0.004760
     3   Atom       -0.004121      0.006447     -0.004760
     4   Atom        0.004120      0.006450      0.004764
     5   Atom        0.000001     -0.000002     -0.000663
     6   Atom        0.000001      0.000002      0.000663
     7   Atom       -0.000004      0.000000     -0.000000
     8   Atom        0.000004     -0.005681     -0.000002
     9   Atom        0.000004      0.005681      0.000002
 --------------------------------------------------------


 ---------------------------------------------------------------------------------
              Anisotropic Spin Dipole Couplings in Principal Axis System
 ---------------------------------------------------------------------------------

       Atom             a.u.   MegaHertz   Gauss  10(-4) cm-1        Axes

              Baa    -0.0115     0.250     0.089     0.083 -0.3700  0.9251  0.0853
     1 Ag(107 Bbb    -0.0044     0.096     0.034     0.032  0.8553  0.3033  0.4201
              Bcc     0.0159    -0.346    -0.123    -0.115 -0.3628 -0.2284  0.9034
 
              Baa    -0.0115     0.250     0.089     0.083  0.3704  0.9250 -0.0851
     2 Ag(107 Bbb    -0.0044     0.096     0.034     0.032  0.8552 -0.3038  0.4200
              Bcc     0.0159    -0.346    -0.123    -0.115 -0.3626  0.2283  0.9035
 
              Baa    -0.0115     0.250     0.089     0.083  0.3704  0.9250  0.0851
     3 Ag(107 Bbb    -0.0044     0.096     0.034     0.032  0.8552 -0.3038 -0.4200
              Bcc     0.0159    -0.346    -0.123    -0.115  0.3626 -0.2283  0.9035
 
              Baa    -0.0115     0.250     0.089     0.083 -0.3700  0.9251 -0.0853
     4 Ag(107 Bbb    -0.0044     0.096     0.034     0.032  0.8553  0.3033 -0.4201
              Bcc     0.0159    -0.346    -0.123    -0.115  0.3628  0.2284  0.9034
 
              Baa    -0.0090     0.196     0.070     0.065 -0.0000  0.9782  0.2076
     5 Ag(107 Bbb    -0.0058     0.125     0.045     0.042  0.0001 -0.2076  0.9782
              Bcc     0.0148    -0.321    -0.114    -0.107  1.0000  0.0001 -0.0001
 
              Baa    -0.0090     0.196     0.070     0.065 -0.0000  0.9782 -0.2076
     6 Ag(107 Bbb    -0.0058     0.125     0.045     0.042 -0.0001  0.2076  0.9782
              Bcc     0.0148    -0.321    -0.114    -0.107  1.0000  0.0001  0.0001
 
              Baa    -0.0250     0.543     0.194     0.181 -0.0000  0.0000  1.0000
     7 Ag(107 Bbb     0.0099    -0.214    -0.076    -0.071  1.0000  0.0008  0.0000
              Bcc     0.0151    -0.328    -0.117    -0.110 -0.0008  1.0000 -0.0000
 
              Baa    -0.0099     0.216     0.077     0.072  0.7075 -0.0001  0.7068
     8 Ag(107 Bbb     0.0014    -0.031    -0.011    -0.010 -0.7068  0.0006  0.7075
              Bcc     0.0085    -0.185    -0.066    -0.062  0.0005  1.0000 -0.0003
 
              Baa    -0.0099     0.216     0.077     0.072  0.7075 -0.0001 -0.7068
     9 Ag(107 Bbb     0.0014    -0.031    -0.011    -0.010  0.7068 -0.0006  0.7075
              Bcc     0.0085    -0.185    -0.066    -0.062  0.0005  1.0000  0.0003
 

 ---------------------------------------------------------------------------------

 No NMR shielding tensors so no spin-rotation constants.
 Leave Link  601 at Tue Feb 25 20:29:24 2025, MaxMem=  2097152000 cpu:               1.2 elap:               0.3
 (Enter /nvme/h/buildsets/eb_nepheli/software/Gaussian/16.C.01-AVX2/g16/l701.exe)
 ... and contract with generalized density number  0.
 Compute integral first derivatives.
 R6Disp: Adding Grimme-D2 dispersion energy 1st derivatives to the gradient.
   2 Symmetry operations used in ECPInt.
 ECPInt:  NShTT=    4950 NPrTT=   14841 LenC2=    4878 LenP2D=   12680.
 LDataN:  DoStor=T MaxTD1= 8 Len=  415
 Leave Link  701 at Tue Feb 25 20:29:28 2025, MaxMem=  2097152000 cpu:              15.2 elap:               3.8
 (Enter /nvme/h/buildsets/eb_nepheli/software/Gaussian/16.C.01-AVX2/g16/l702.exe)
 L702 exits ... SP integral derivatives will be done elsewhere.
 Leave Link  702 at Tue Feb 25 20:29:28 2025, MaxMem=  2097152000 cpu:               0.0 elap:               0.0
 (Enter /nvme/h/buildsets/eb_nepheli/software/Gaussian/16.C.01-AVX2/g16/l703.exe)
 Integral derivatives from FoFJK, PRISM(SPDF).
 Compute integral first derivatives, UseDBF=F ICtDFT=           0.
 Calling FoFJK, ICntrl=      2127 FMM=F ISym2X=1 I1Cent= 0 IOpClX= 1 NMat=1 NMatS=1 NMatT=0.
 FoFJK:  IHMeth= 1 ICntrl=    2127 DoSepK=T KAlg= 0 I1Cent=           0 FoldK=F
 IRaf=         1 NMat=       1 IRICut=       1 DoRegI=T DoRafI=F ISym2E= 1 IDoP0=0 IntGTp=1.
 FoFCou: FMM=F IPFlag=           0 FMFlag=      100000 FMFlg1=         800
         NFxFlg=           0 DoJE=F BraDBF=F KetDBF=F FulRan=T
         wScrn=  0.000000 ICntrl=      2527 IOpCl=  0 I1Cent=           0 NGrid=           0
         NMat0=    1 NMatS0=      1 NMatT0=    0 NMatD0=    1 NMtDS0=    0 NMtDT0=    0
 Petite list used in FoFCou.
 Defaulting to unpruned grid for atomic number  47.
 Defaulting to unpruned grid for atomic number  47.
 Defaulting to unpruned grid for atomic number  47.
 Defaulting to unpruned grid for atomic number  47.
 Leave Link  703 at Tue Feb 25 20:29:59 2025, MaxMem=  2097152000 cpu:             121.6 elap:              30.8
 (Enter /nvme/h/buildsets/eb_nepheli/software/Gaussian/16.C.01-AVX2/g16/l716.exe)
 Dipole        =-6.66133815D-15-8.30376891D-16 7.02866213D-02
 ***** Axes restored to original set *****
 -------------------------------------------------------------------
 Center     Atomic                   Forces (Hartrees/Bohr)
 Number     Number              X              Y              Z
 -------------------------------------------------------------------
      1       47          -0.000084119   -0.000056309   -0.000079456
      2       47          -0.000082729    0.000056080   -0.000077044
      3       47           0.000082729   -0.000056080   -0.000077044
      4       47           0.000084119    0.000056309   -0.000079456
      5       47           0.000000083   -0.000195684   -0.000032678
      6       47          -0.000000083    0.000195684   -0.000032678
      7       47           0.000000000   -0.000000000    0.000299557
      8       47           0.000163372    0.000001403    0.000039399
      9       47          -0.000163372   -0.000001403    0.000039399
 -------------------------------------------------------------------
 Cartesian Forces:  Max     0.000299557 RMS     0.000103622
 Z-matrix is all fixed cartesians, so copy forces.
 Force constants in Cartesian coordinates: 
                1             2             3             4             5 
      1  0.183511D+00
      2 -0.324409D-01  0.180420D+00
      3 -0.421985D-01  0.140469D-01  0.142007D+00
      4 -0.218980D-01  0.222438D-01  0.975883D-02  0.183511D+00
      5 -0.222493D-01 -0.622390D-01  0.116660D-01  0.324443D-01  0.180414D+00
      6  0.975478D-02 -0.116733D-01 -0.104682D-01 -0.421989D-01 -0.140435D-01
      7 -0.626071D-02 -0.258811D-02 -0.250734D-02  0.210759D-02 -0.403466D-02
      8  0.258860D-02  0.800522D-02 -0.309469D-02 -0.403466D-02  0.571915D-02
      9  0.250851D-02 -0.309463D-02  0.867280D-02 -0.188692D-02 -0.124523D-02
     10  0.210954D-02  0.403674D-02  0.188639D-02 -0.626071D-02  0.258860D-02
     11  0.403674D-02  0.572184D-02 -0.124506D-02 -0.258811D-02  0.800522D-02
     12 -0.188639D-02  0.124506D-02  0.128657D-01  0.250734D-02  0.309469D-02
     13 -0.573341D-01 -0.322018D-01  0.303290D-01  0.490356D-02 -0.758292D-02
     14  0.160294D-01 -0.402873D-01 -0.346017D-02 -0.855497D-02 -0.271028D-02
     15  0.210481D-01  0.245120D-01 -0.361802D-01  0.301497D-02  0.466995D-02
     16  0.490524D-02  0.758240D-02  0.320993D-02 -0.573366D-01  0.322034D-01
     17  0.855509D-02 -0.271047D-02 -0.602158D-02 -0.160298D-01 -0.402862D-01
     18  0.301580D-02 -0.467017D-02  0.996961D-02  0.210443D-01 -0.245106D-01
     19 -0.753539D-01  0.107498D-01 -0.368135D-01 -0.753390D-01 -0.107468D-01
     20  0.175873D-01 -0.651780D-01  0.247971D-01 -0.175842D-01 -0.651613D-01
     21  0.139643D-01 -0.105709D-01 -0.703837D-01  0.139643D-01  0.105699D-01
     22 -0.270830D-01  0.162928D-01  0.281527D-01 -0.270904D-01 -0.162969D-01
     23  0.504547D-04 -0.328051D-01 -0.341806D-01 -0.535610D-04 -0.328143D-01
     24 -0.144402D-01 -0.684300D-02 -0.620700D-01 -0.144374D-01  0.684779D-02
     25 -0.259644D-02  0.632529D-02  0.818251D-02 -0.259705D-02 -0.632561D-02
     26  0.584270D-02  0.907297D-02 -0.250788D-02 -0.584274D-02  0.907305D-02
     27  0.823361D-02 -0.295188D-02  0.558705D-02  0.823348D-02  0.295091D-02
                6             7             8             9            10 
      6  0.142005D+00
      7  0.188692D-02  0.183511D+00
      8  0.124523D-02  0.324443D-01  0.180414D+00
      9  0.128635D-01  0.421989D-01  0.140435D-01  0.142005D+00
     10 -0.250851D-02 -0.218980D-01 -0.222493D-01 -0.975478D-02  0.183511D+00
     11  0.309463D-02  0.222438D-01 -0.622390D-01  0.116733D-01 -0.324409D-01
     12  0.867280D-02 -0.975883D-02 -0.116660D-01 -0.104682D-01  0.421985D-01
     13  0.320989D-02 -0.573366D-01  0.322034D-01 -0.303259D-01  0.490524D-02
     14  0.602187D-02 -0.160298D-01 -0.402862D-01 -0.345698D-02  0.855509D-02
     15  0.997052D-02 -0.210443D-01  0.245106D-01 -0.361738D-01 -0.301580D-02
     16  0.303259D-01  0.490356D-02 -0.758292D-02 -0.320989D-02 -0.573341D-01
     17  0.345698D-02 -0.855497D-02 -0.271028D-02 -0.602187D-02  0.160294D-01
     18 -0.361738D-01 -0.301497D-02 -0.466995D-02  0.997052D-02 -0.210481D-01
     19 -0.368129D-01 -0.753390D-01 -0.107468D-01  0.368129D-01 -0.753539D-01
     20 -0.247942D-01 -0.175842D-01 -0.651613D-01  0.247942D-01  0.175873D-01
     21 -0.703753D-01 -0.139643D-01 -0.105699D-01 -0.703753D-01 -0.139643D-01
     22  0.281604D-01 -0.259705D-02 -0.632561D-02 -0.818247D-02 -0.259644D-02
     23  0.341855D-01 -0.584274D-02  0.907305D-02 -0.250685D-02  0.584270D-02
     24 -0.620826D-01 -0.823348D-02 -0.295091D-02  0.558773D-02 -0.823361D-02
     25  0.818247D-02 -0.270904D-01 -0.162969D-01 -0.281604D-01 -0.270830D-01
     26  0.250685D-02 -0.535610D-04 -0.328143D-01 -0.341855D-01  0.504547D-04
     27  0.558773D-02  0.144374D-01 -0.684779D-02 -0.620826D-01  0.144402D-01
               11            12            13            14            15 
     11  0.180420D+00
     12 -0.140469D-01  0.142007D+00
     13  0.758240D-02 -0.320993D-02  0.217618D+00
     14 -0.271047D-02  0.602158D-02 -0.100626D-05  0.287190D+00
     15  0.467017D-02  0.996961D-02 -0.405378D-05 -0.264686D-01  0.185703D+00
     16 -0.322018D-01 -0.303290D-01  0.105308D-01  0.000000D+00  0.000000D+00
     17 -0.402873D-01  0.346017D-02  0.000000D+00 -0.104748D-01  0.511705D-03
     18 -0.245120D-01 -0.361802D-01  0.000000D+00 -0.511705D-03  0.100720D-01
     19  0.107498D-01  0.368135D-01 -0.348621D-01  0.000000D+00  0.000000D+00
     20 -0.651780D-01 -0.247971D-01  0.000000D+00 -0.532096D-01  0.393479D-01
     21  0.105709D-01 -0.703837D-01  0.000000D+00 -0.380513D-02 -0.608812D-01
     22  0.632529D-02 -0.818251D-02 -0.442119D-01 -0.180855D-02 -0.249163D-01
     23  0.907297D-02  0.250788D-02 -0.343464D-01 -0.687540D-01 -0.358764D-01
     24  0.295188D-02  0.558705D-02 -0.843495D-02  0.128298D-01 -0.412394D-01
     25  0.162928D-01 -0.281527D-01 -0.442126D-01  0.180998D-02  0.249179D-01
     26 -0.328051D-01  0.341806D-01  0.343464D-01 -0.687574D-01 -0.358773D-01
     27  0.684300D-02 -0.620700D-01  0.843662D-02  0.128294D-01 -0.412405D-01
               16            17            18            19            20 
     16  0.217618D+00
     17 -0.100626D-05  0.287190D+00
     18  0.405378D-05  0.264686D-01  0.185703D+00
     19 -0.348621D-01  0.000000D+00  0.000000D+00  0.444398D+00
     20  0.000000D+00 -0.532096D-01 -0.393479D-01 -0.723468D-05  0.423959D+00
     21  0.000000D+00  0.380513D-02 -0.608812D-01  0.000000D+00  0.000000D+00
     22 -0.442126D-01  0.180998D-02 -0.249179D-01 -0.366437D-01  0.000000D+00
     23  0.343464D-01 -0.687574D-01  0.358773D-01  0.000000D+00 -0.284308D-01
     24 -0.843662D-02 -0.128294D-01 -0.412405D-01 -0.185141D-01  0.000000D+00
     25 -0.442119D-01 -0.180855D-02  0.249163D-01 -0.366437D-01  0.000000D+00
     26 -0.343464D-01 -0.687540D-01  0.358764D-01  0.000000D+00 -0.284308D-01
     27  0.843495D-02 -0.128298D-01 -0.412394D-01  0.185141D-01  0.000000D+00
               21            22            23            24            25 
     21  0.531359D+00
     22 -0.194451D-02  0.273718D+00
     23  0.000000D+00  0.239353D-05  0.245839D+00
     24 -0.640392D-01  0.462805D-01 -0.678569D-05  0.311563D+00
     25  0.194451D-02 -0.892832D-01  0.000000D+00  0.344498D-01  0.273718D+00
     26  0.000000D+00  0.000000D+00 -0.324238D-01  0.000000D+00  0.239353D-05
     27 -0.640392D-01 -0.344498D-01  0.000000D+00 -0.520662D-01 -0.462805D-01
               26            27 
     26  0.245839D+00
     27  0.678569D-05  0.311563D+00
 Leave Link  716 at Tue Feb 25 20:29:59 2025, MaxMem=  2097152000 cpu:               0.1 elap:               0.0
 (Enter /nvme/h/buildsets/eb_nepheli/software/Gaussian/16.C.01-AVX2/g16/l103.exe)

 GradGradGradGradGradGradGradGradGradGradGradGradGradGradGradGradGradGrad
 Berny optimization.
 Search for a local minimum.
 Step number   1 out of a maximum of    2
 All quantities printed in internal units (Hartrees-Bohrs-Radians)
 Second derivative matrix not updated -- first step.
 ITU=  0
     Eigenvalues ---    0.11435   0.13260   0.13270   0.19891   0.20152
     Eigenvalues ---    0.20191   0.21733   0.25506   0.25519   0.25652
     Eigenvalues ---    0.28197   0.29170   0.30953   0.36551   0.36972
     Eigenvalues ---    0.39522   0.40017   0.42985   0.49931   0.52349
     Eigenvalues ---    0.60214
 Angle between quadratic step and forces=  28.99 degrees.
 ClnCor:  largest displacement from symmetrization is 3.82D-12 for atom     4.
 Linear search not attempted -- first point.
 ClnCor:  largest displacement from symmetrization is 8.88D-16 for atom     5.
 B after Tr=    -0.000000   -0.000000    0.000000
         Rot=    1.000000   -0.000000    0.000000   -0.000000 Ang=   0.00 deg.
 Variable       Old X    -DE/DX   Delta X   Delta X   Delta X     New X
                                 (Linear)    (Quad)   (Total)
    X1       -4.36642  -0.00008   0.00000  -0.00057  -0.00057  -4.36699
    Y1        2.82572  -0.00006   0.00000  -0.00037  -0.00037   2.82535
    Z1        1.48760  -0.00008   0.00000  -0.00034  -0.00034   1.48726
    X2       -4.36672  -0.00008   0.00000  -0.00056  -0.00056  -4.36728
    Y2       -2.82555   0.00006   0.00000   0.00037   0.00037  -2.82518
    Z2        1.48719  -0.00008   0.00000  -0.00032  -0.00032   1.48687
    X3        4.36672   0.00008   0.00000   0.00056   0.00056   4.36728
    Y3        2.82555  -0.00006   0.00000  -0.00037  -0.00037   2.82518
    Z3        1.48719  -0.00008   0.00000  -0.00032  -0.00032   1.48687
    X4        4.36642   0.00008   0.00000   0.00057   0.00057   4.36699
    Y4       -2.82572   0.00006   0.00000   0.00037   0.00037  -2.82535
    Z4        1.48760  -0.00008   0.00000  -0.00034  -0.00034   1.48726
    X5        0.00002   0.00000   0.00000   0.00000   0.00000   0.00002
    Y5        4.31770  -0.00020   0.00000  -0.00070  -0.00070   4.31700
    Z5       -1.23750  -0.00003   0.00000   0.00021   0.00021  -1.23729
    X6       -0.00002  -0.00000   0.00000  -0.00000  -0.00000  -0.00002
    Y6       -4.31770   0.00020   0.00000   0.00070   0.00070  -4.31700
    Z6       -1.23750  -0.00003   0.00000   0.00021   0.00021  -1.23729
    X7       -0.00000   0.00000   0.00000  -0.00000  -0.00000  -0.00000
    Y7        0.00000  -0.00000   0.00000  -0.00000  -0.00000   0.00000
    Z7        2.42555   0.00030   0.00000   0.00051   0.00051   2.42606
    X8       -2.64718   0.00016   0.00000   0.00045   0.00045  -2.64673
    Y8       -0.00002   0.00000   0.00000   0.00000   0.00000  -0.00002
    Z8       -2.95007   0.00004   0.00000   0.00020   0.00020  -2.94987
    X9        2.64718  -0.00016   0.00000  -0.00045  -0.00045   2.64673
    Y9        0.00002  -0.00000   0.00000  -0.00000  -0.00000   0.00002
    Z9       -2.95007   0.00004   0.00000   0.00020   0.00020  -2.94987
         Item               Value     Threshold  Converged?
 Maximum Force            0.000300     0.000450     YES
 RMS     Force            0.000104     0.000300     YES
 Maximum Displacement     0.000702     0.001800     YES
 RMS     Displacement     0.000388     0.001200     YES
 Predicted change in Energy=-4.745962D-07
 Optimization completed.
    -- Stationary point found.
 GradGradGradGradGradGradGradGradGradGradGradGradGradGradGradGradGradGrad

 Leave Link  103 at Tue Feb 25 20:29:59 2025, MaxMem=  2097152000 cpu:               0.3 elap:               0.1
 (Enter /nvme/h/buildsets/eb_nepheli/software/Gaussian/16.C.01-AVX2/g16/l9999.exe)
 Unable to Open any file for archive entry.
 1\1\GINC-NE08\Force\UwB97XD\def2SVP\Ag9(2)\NPATSALIDIS\25-Feb-2025\0\\
 #p wb97xd/def2SVP scf(xqc) scfcyc=999 force\\Template file\\0,2\Ag,-2.
 310612,1.495304,0.787204\Ag,-2.310771,-1.495216,0.786987\Ag,2.310771,1
 .495216,0.786987\Ag,2.310612,-1.495304,0.787204\Ag,0.000012,2.284828,-
 0.654857\Ag,-0.000012,-2.284828,-0.654857\Ag,0.,0.,1.283548\Ag,-1.4008
 27,-0.00001,-1.561109\Ag,1.400827,0.00001,-1.561109\\Version=ES64L-G16
 RevC.01\State=2-A\HF=-1323.2511082\S2=0.76866\S2-1=0.\S2A=0.75025\RMSD
 =6.003e-09\RMSF=1.036e-04\Dipole=0.,0.,0.0702866\Quadrupole=5.3130204,
 0.1294363,-5.4424566,-0.002082,0.,0.\PG=C02 [C2(Ag1),X(Ag8)]\\@
 The archive entry for this job was punched.


 The mind is not a vessel to be filled but a fire to be kindled.
                                  -- Plutarch
 Job cpu time:       0 days  0 hours 12 minutes 16.9 seconds.
 Elapsed time:       0 days  0 hours  3 minutes  6.6 seconds.
 File lengths (MBytes):  RWF=     84 Int=      0 D2E=      0 Chk=      7 Scr=      1
 Normal termination of Gaussian 16 at Tue Feb 25 20:30:00 2025.
