 Entering Gaussian System, Link 0=g16
 Initial command:
 /nvme/h/buildsets/eb_nepheli/software/Gaussian/16.C.01-AVX2/g16/l1.exe "/onyx/data/simea/nikolas/postDoc/Active-Learning-Package/Ag7CO2/init_data/Ag7/Gau-55361.inp" -scrdir="/onyx/data/simea/nikolas/postDoc/Active-Learning-Package/Ag7CO2/init_data/Ag7/"
 Entering Link 1 = /nvme/h/buildsets/eb_nepheli/software/Gaussian/16.C.01-AVX2/g16/l1.exe PID=     55362.
  
 Copyright (c) 1988-2019, Gaussian, Inc.  All Rights Reserved.
  
 This is part of the Gaussian(R) 16 program.  It is based on
 the Gaussian(R) 09 system (copyright 2009, Gaussian, Inc.),
 the Gaussian(R) 03 system (copyright 2003, Gaussian, Inc.),
 the Gaussian(R) 98 system (copyright 1998, Gaussian, Inc.),
 the Gaussian(R) 94 system (copyright 1995, Gaussian, Inc.),
 the Gaussian 92(TM) system (copyright 1992, Gaussian, Inc.),
 the Gaussian 90(TM) system (copyright 1990, Gaussian, Inc.),
 the Gaussian 88(TM) system (copyright 1988, Gaussian, Inc.),
 the Gaussian 86(TM) system (copyright 1986, Carnegie Mellon
 University), and the Gaussian 82(TM) system (copyright 1983,
 Carnegie Mellon University). Gaussian is a federally registered
 trademark of Gaussian, Inc.
  
 This software contains proprietary and confidential information,
 including trade secrets, belonging to Gaussian, Inc.
  
 This software is provided under written license and may be
 used, copied, transmitted, or stored only in accord with that
 written license.
  
 The following legend is applicable only to US Government
 contracts under FAR:
  
                    RESTRICTED RIGHTS LEGEND
  
 Use, reproduction and disclosure by the US Government is
 subject to restrictions as set forth in subparagraphs (a)
 and (c) of the Commercial Computer Software - Restricted
 Rights clause in FAR 52.227-19.
  
 Gaussian, Inc.
 340 Quinnipiac St., Bldg. 40, Wallingford CT 06492
  
  
 ---------------------------------------------------------------
 Warning -- This program may not be used in any manner that
 competes with the business of Gaussian, Inc. or will provide
 assistance to any competitor of Gaussian, Inc.  The licensee
 of this program is prohibited from giving any competitor of
 Gaussian, Inc. access to this program.  By using this program,
 the user acknowledges that Gaussian, Inc. is engaged in the
 business of creating and licensing software in the field of
 computational chemistry and represents and warrants to the
 licensee that it is not a competitor of Gaussian, Inc. and that
 it will not use this program in any manner prohibited above.
 ---------------------------------------------------------------
  

 Cite this work as:
 Gaussian 16, Revision C.01,
 M. J. Frisch, G. W. Trucks, H. B. Schlegel, G. E. Scuseria, 
 M. A. Robb, J. R. Cheeseman, G. Scalmani, V. Barone, 
 G. A. Petersson, H. Nakatsuji, X. Li, M. Caricato, A. V. Marenich, 
 J. Bloino, B. G. Janesko, R. Gomperts, B. Mennucci, H. P. Hratchian, 
 J. V. Ortiz, A. F. Izmaylov, J. L. Sonnenberg, D. Williams-Young, 
 F. Ding, F. Lipparini, F. Egidi, J. Goings, B. Peng, A. Petrone, 
 T. Henderson, D. Ranasinghe, V. G. Zakrzewski, J. Gao, N. Rega, 
 G. Zheng, W. Liang, M. Hada, M. Ehara, K. Toyota, R. Fukuda, 
 J. Hasegawa, M. Ishida, T. Nakajima, Y. Honda, O. Kitao, H. Nakai, 
 T. Vreven, K. Throssell, J. A. Montgomery, Jr., J. E. Peralta, 
 F. Ogliaro, M. J. Bearpark, J. J. Heyd, E. N. Brothers, K. N. Kudin, 
 V. N. Staroverov, T. A. Keith, R. Kobayashi, J. Normand, 
 K. Raghavachari, A. P. Rendell, J. C. Burant, S. S. Iyengar, 
 J. Tomasi, M. Cossi, J. M. Millam, M. Klene, C. Adamo, R. Cammi, 
 J. W. Ochterski, R. L. Martin, K. Morokuma, O. Farkas, 
 J. B. Foresman, and D. J. Fox, Gaussian, Inc., Wallingford CT, 2019.
 
 ******************************************
 Gaussian 16:  ES64L-G16RevC.01  3-Jul-2019
                24-Feb-2025 
 ******************************************
 %nprocshared=4
 Will use up to    4 processors via shared memory.
 %mem=16000MB
 -------------------------------------------
 #p wb97xd/def2SVP scf(xqc) scfcyc=999 force
 -------------------------------------------
 1/10=7,30=1,38=1/1,3;
 2/12=2,17=6,18=5,40=1/2;
 3/5=43,7=101,11=2,25=1,30=1,71=1,74=-58/1,2,3;
 4//1;
 5/5=2,7=999,8=3,13=1,38=5/2,8;
 6/7=2,8=2,9=2,10=2,28=1/1;
 7/29=1/1,2,3,16;
 1/10=7,30=1/3;
 99//99;
 Leave Link    1 at Mon Feb 24 13:28:10 2025, MaxMem=  2097152000 cpu:               0.2 elap:               0.1
 (Enter /nvme/h/buildsets/eb_nepheli/software/Gaussian/16.C.01-AVX2/g16/l101.exe)
 -------------
 Template file
 -------------
 Symbolic Z-matrix:
 Charge =  0 Multiplicity = 2
 Ag                   -0.21584  -2.39679  -0.00003 
 Ag                   -2.34671  -0.53463   0.00001 
 Ag                    2.21203  -0.94654   0.00003 
 Ag                   -1.23333   2.06593  -0.00001 
 Ag                    1.58415   1.81131  -0.00001 
 Ag                   -0.00014   0.00036  -1.54583 
 Ag                   -0.00015   0.00037   1.54584 
 
 ITRead=  0  0  0  0  0  0  0
 MicOpt= -1 -1 -1 -1 -1 -1 -1
 NAtoms=      7 NQM=        7 NQMF=       0 NMMI=      0 NMMIF=      0
                NMic=       0 NMicF=      0.
                    Isotopes and Nuclear Properties:
 (Nuclear quadrupole moments (NQMom) in fm**2, nuclear magnetic moments (NMagM)
  in nuclear magnetons)

  Atom         1           2           3           4           5           6           7
 IAtWgt=         107         107         107         107         107         107         107
 AtmWgt= 106.9050900 106.9050900 106.9050900 106.9050900 106.9050900 106.9050900 106.9050900
 NucSpn=           1           1           1           1           1           1           1
 AtZEff=  -0.0000000  -0.0000000  -0.0000000  -0.0000000  -0.0000000  -0.0000000  -0.0000000
 NQMom=    0.0000000   0.0000000   0.0000000   0.0000000   0.0000000   0.0000000   0.0000000
 NMagM=   -0.1135700  -0.1135700  -0.1135700  -0.1135700  -0.1135700  -0.1135700  -0.1135700
 AtZNuc=  47.0000000  47.0000000  47.0000000  47.0000000  47.0000000  47.0000000  47.0000000
 Leave Link  101 at Mon Feb 24 13:28:10 2025, MaxMem=  2097152000 cpu:               0.1 elap:               0.1
 (Enter /nvme/h/buildsets/eb_nepheli/software/Gaussian/16.C.01-AVX2/g16/l103.exe)

 GradGradGradGradGradGradGradGradGradGradGradGradGradGradGradGradGradGrad
 Berny optimization.
 Initialization pass.
 Trust Radius=3.00D-01 FncErr=1.00D-07 GrdErr=1.00D-07 EigMax=2.50D+02 EigMin=1.00D-04
 Number of steps in this run=      2 maximum allowed number of steps=      2.
 GradGradGradGradGradGradGradGradGradGradGradGradGradGradGradGradGradGrad

 Leave Link  103 at Mon Feb 24 13:28:10 2025, MaxMem=  2097152000 cpu:               0.1 elap:               0.0
 (Enter /nvme/h/buildsets/eb_nepheli/software/Gaussian/16.C.01-AVX2/g16/l202.exe)
                          Input orientation:                          
 ---------------------------------------------------------------------
 Center     Atomic      Atomic             Coordinates (Angstroms)
 Number     Number       Type             X           Y           Z
 ---------------------------------------------------------------------
      1         47           0       -0.215838   -2.396791   -0.000030
      2         47           0       -2.346714   -0.534634    0.000014
      3         47           0        2.212028   -0.946538    0.000025
      4         47           0       -1.233332    2.065928   -0.000006
      5         47           0        1.584146    1.811308   -0.000009
      6         47           0       -0.000144    0.000358   -1.545832
      7         47           0       -0.000146    0.000369    1.545837
 ---------------------------------------------------------------------
                    Distance matrix (angstroms):
                    1          2          3          4          5
     1  Ag   0.000000
     2  Ag   2.829887   0.000000
     3  Ag   2.828032   4.577313   0.000000
     4  Ag   4.577243   2.828876   4.576621   0.000000
     5  Ag   4.576903   4.577675   2.828418   2.828960   0.000000
     6  Ag   2.860481   2.860463   2.860068   2.859530   2.859910
     7  Ag   2.860525   2.860451   2.860049   2.859530   2.859916
                    6          7
     6  Ag   0.000000
     7  Ag   3.091669   0.000000
 Stoichiometry    Ag7(2)
 Framework group  C1[X(Ag7)]
 Deg. of freedom    15
 Full point group                 C1      NOp   1
 Largest Abelian subgroup         C1      NOp   1
 Largest concise Abelian subgroup C1      NOp   1
                         Standard orientation:                         
 ---------------------------------------------------------------------
 Center     Atomic      Atomic             Coordinates (Angstroms)
 Number     Number       Type             X           Y           Z
 ---------------------------------------------------------------------
      1         47           0       -0.241751    2.394316   -0.000030
      2         47           0        2.203088    0.969177    0.000014
      3         47           0       -2.351207    0.510712    0.000025
      4         47           0        1.602093   -1.795122   -0.000006
      5         47           0       -1.212645   -2.078424   -0.000009
      6         47           0        0.000209   -0.000324   -1.545832
      7         47           0        0.000213   -0.000335    1.545837
 ---------------------------------------------------------------------
 Rotational constants (GHZ):           0.2455211           0.2454926           0.1632792
 Leave Link  202 at Mon Feb 24 13:28:10 2025, MaxMem=  2097152000 cpu:               0.0 elap:               0.0
 (Enter /nvme/h/buildsets/eb_nepheli/software/Gaussian/16.C.01-AVX2/g16/l301.exe)
 Standard basis: def2SVP (5D, 7F)
 Ernie: Thresh=  0.10000D-02 Tol=  0.10000D-05 Strict=F.
 There are   252 symmetry adapted cartesian basis functions of A   symmetry.
 There are   217 symmetry adapted basis functions of A   symmetry.
   217 basis functions,   455 primitive gaussians,   252 cartesian basis functions
    67 alpha electrons       66 beta electrons
       nuclear repulsion energy      1276.0497358191 Hartrees.
 IExCor= 4639 DFT=T Ex+Corr=wB97XD ExCW=0 ScaHFX=  1.000000
 ScaDFX=  1.000000  1.000000  1.000000  1.000000 ScalE2=  1.000000  1.000000
 IRadAn=      5 IRanWt=     -1 IRanGd=            0 ICorTp=0 IEmpDi=121
 HFx  wShort=  0.000000 wLong=  0.200000 cFull=  0.222036 cShort=  0.000000 cLong=  0.777964
 DFx  wShort=  0.000000 wLong=  0.200000 cFull=  0.000000 cShort=  0.000000 cLong=  1.000000
 NAtoms=    7 NActive=    7 NUniq=    7 SFac= 1.00D+00 NAtFMM=   60 NAOKFM=F Big=F
 Integral buffers will be    131072 words long.
 Raffenetti 2 integral format.
 Two-electron integral symmetry is turned on.
 R6Disp:  Grimme-D2 Dispersion energy=       -0.0133556597 Hartrees.
 Nuclear repulsion after empirical dispersion term =     1276.0363801595 Hartrees.
 Leave Link  301 at Mon Feb 24 13:28:10 2025, MaxMem=  2097152000 cpu:               0.1 elap:               0.0
 (Enter /nvme/h/buildsets/eb_nepheli/software/Gaussian/16.C.01-AVX2/g16/l302.exe)
 NPDir=0 NMtPBC=     1 NCelOv=     1 NCel=       1 NClECP=     1 NCelD=      1
         NCelK=      1 NCelE2=     1 NClLst=     1 CellRange=     0.0.
 One-electron integrals computed using PRISM.
 One-electron integral symmetry used in STVInt
   1 Symmetry operations used in ECPInt.
 ECPInt:  NShTT=    3003 NPrTT=    9016 LenC2=    2979 LenP2D=    7964.
 LDataN:  DoStor=T MaxTD1= 7 Len=  274
 NBasis=   217 RedAO= T EigKep=  3.81D-04  NBF=   217
 NBsUse=   217 1.00D-06 EigRej= -1.00D+00 NBFU=   217
 Precomputing XC quadrature grid using
 IXCGrd= 4 IRadAn=           5 IRanWt=          -1 IRanGd=           0 AccXCQ= 0.00D+00.
 Defaulting to unpruned grid for atomic number  47.
 Defaulting to unpruned grid for atomic number  47.
 Defaulting to unpruned grid for atomic number  47.
 Defaulting to unpruned grid for atomic number  47.
 Generated NRdTot=       0 NPtTot=           0 NUsed=           0 NTot=          32
 NSgBfM=   252   252   252   252   252 MxSgAt=     7 MxSgA2=     7.
 Leave Link  302 at Mon Feb 24 13:28:11 2025, MaxMem=  2097152000 cpu:               3.5 elap:               0.9
 (Enter /nvme/h/buildsets/eb_nepheli/software/Gaussian/16.C.01-AVX2/g16/l303.exe)
 DipDrv:  MaxL=1.
 Leave Link  303 at Mon Feb 24 13:28:11 2025, MaxMem=  2097152000 cpu:               0.1 elap:               0.0
 (Enter /nvme/h/buildsets/eb_nepheli/software/Gaussian/16.C.01-AVX2/g16/l401.exe)
 ExpMin= 3.75D-02 ExpMax= 9.09D+00 ExpMxC= 9.09D+00 IAcc=3 IRadAn=         5 AccDes= 0.00D+00
 Harris functional with IExCor= 4639 and IRadAn=       5 diagonalized for initial guess.
 HarFok:  IExCor= 4639 AccDes= 0.00D+00 IRadAn=         5 IDoV= 1 UseB2=F ITyADJ=14
 ICtDFT=  3500011 ScaDFX=  1.000000  1.000000  1.000000  1.000000
 Defaulting to unpruned grid for atomic number  47.
 FoFCou: FMM=F IPFlag=           0 FMFlag=      100000 FMFlg1=           0
         NFxFlg=           0 DoJE=T BraDBF=F KetDBF=T FulRan=T
         wScrn=  0.000000 ICntrl=       500 IOpCl=  0 I1Cent=   200000004 NGrid=           0
         NMat0=    1 NMatS0=      1 NMatT0=    0 NMatD0=    1 NMtDS0=    0 NMtDT0=    0
 Petite list used in FoFCou.
 Harris En= -1001.63440242548    
 JPrj=0 DoOrth=F DoCkMO=F.
 Initial guess <Sx>= 0.0000 <Sy>= 0.0000 <Sz>= 0.5000 <S**2>= 0.7500 S= 0.5000
 Leave Link  401 at Mon Feb 24 13:28:12 2025, MaxMem=  2097152000 cpu:               4.5 elap:               1.2
 (Enter /nvme/h/buildsets/eb_nepheli/software/Gaussian/16.C.01-AVX2/g16/l502.exe)
 Keep R1 and R2 ints in memory in canonical form, NReq=1132254437.
 FoFCou: FMM=F IPFlag=           0 FMFlag=           0 FMFlg1=           0
         NFxFlg=           0 DoJE=F BraDBF=F KetDBF=F FulRan=T
         wScrn=  0.000000 ICntrl=       600 IOpCl=  0 I1Cent=           0 NGrid=           0
         NMat0=    1 NMatS0=  23653 NMatT0=    0 NMatD0=    1 NMtDS0=    0 NMtDT0=    0
 Symmetry not used in FoFCou.
 Two-electron integral symmetry not used.
 UHF open shell SCF:
 Using DIIS extrapolation, IDIIS=  1040.
 NGot=  2097152000 LenX=   978044978 LenY=   977981033
 Requested convergence on RMS density matrix=1.00D-08 within 128 cycles.
 Requested convergence on MAX density matrix=1.00D-06.
 Requested convergence on             energy=1.00D-06.
 No special actions if energy rises.

 Cycle   1  Pass 1  IDiag  1:
 Defaulting to unpruned grid for atomic number  47.
 Defaulting to unpruned grid for atomic number  47.
 Defaulting to unpruned grid for atomic number  47.
 Defaulting to unpruned grid for atomic number  47.
 E= -1018.46987237731    
 DIIS: error= 2.31D-01 at cycle   1 NSaved=   1.
 NSaved= 1 IEnMin= 1 EnMin= -1018.46987237731     IErMin= 1 ErrMin= 2.31D-01
 ErrMax= 2.31D-01  0.00D+00 EMaxC= 1.00D-01 BMatC= 4.93D+01 BMatP= 4.93D+01
 IDIUse=3 WtCom= 0.00D+00 WtEn= 1.00D+00
 Coeff-Com:  0.100D+01
 Coeff-En:   0.100D+01
 Coeff:      0.100D+01
 Gap=    -0.300 Goal=   None    Shift=    0.000
 Gap=     0.935 Goal=   None    Shift=    0.000
 GapD=   -0.300 DampG=0.250 DampE=0.125 DampFc=0.1250 IDamp=-1.
 Damping current iteration by 1.25D-01
 RMSDP=4.23D-02 MaxDP=2.09D+00              OVMax= 9.92D-01

 Cycle   2  Pass 1  IDiag  1:
 E= -1020.93786889895     Delta-E=       -2.467996521646 Rises=F Damp=T
 DIIS: error= 1.73D-01 at cycle   2 NSaved=   2.
 NSaved= 2 IEnMin= 2 EnMin= -1020.93786889895     IErMin= 2 ErrMin= 1.73D-01
 ErrMax= 1.73D-01  0.00D+00 EMaxC= 1.00D-01 BMatC= 2.72D+01 BMatP= 4.93D+01
 IDIUse=3 WtCom= 0.00D+00 WtEn= 1.00D+00
 Coeff-Com: -0.283D+01 0.383D+01
 Coeff-En:   0.000D+00 0.100D+01
 Coeff:      0.000D+00 0.100D+01
 Gap=     0.174 Goal=   None    Shift=    0.000
 Gap=     0.108 Goal=   None    Shift=    0.000
 RMSDP=3.47D-02 MaxDP=1.51D+00 DE=-2.47D+00 OVMax= 8.78D-02

 Cycle   3  Pass 1  IDiag  1:
 E= -1025.13640154104     Delta-E=       -4.198532642092 Rises=F Damp=F
 DIIS: error= 1.08D-01 at cycle   3 NSaved=   3.
 NSaved= 3 IEnMin= 3 EnMin= -1025.13640154104     IErMin= 3 ErrMin= 1.08D-01
 ErrMax= 1.08D-01  0.00D+00 EMaxC= 1.00D-01 BMatC= 1.62D+01 BMatP= 2.72D+01
 IDIUse=3 WtCom= 0.00D+00 WtEn= 1.00D+00
 EnCoef did   100 forward-backward iterations
 Coeff-Com: -0.300D+01 0.404D+01-0.363D-01
 Coeff-En:   0.268D+00 0.746D-02 0.725D+00
 Coeff:      0.268D+00 0.746D-02 0.725D+00
 Gap=     0.151 Goal=   None    Shift=    0.000
 Gap=     0.203 Goal=   None    Shift=    0.000
 RMSDP=2.78D-02 MaxDP=1.46D+00 DE=-4.20D+00 OVMax= 4.61D-01

 Cycle   4  Pass 1  IDiag  1:
 E= -1028.92431800334     Delta-E=       -3.787916462300 Rises=F Damp=F
 DIIS: error= 4.19D-02 at cycle   4 NSaved=   4.
 NSaved= 4 IEnMin= 4 EnMin= -1028.92431800334     IErMin= 4 ErrMin= 4.19D-02
 ErrMax= 4.19D-02  0.00D+00 EMaxC= 1.00D-01 BMatC= 1.65D+00 BMatP= 1.62D+01
 IDIUse=3 WtCom= 5.81D-01 WtEn= 4.19D-01
 Coeff-Com: -0.164D+01 0.218D+01 0.319D-01 0.429D+00
 Coeff-En:   0.000D+00 0.000D+00 0.000D+00 0.100D+01
 Coeff:     -0.952D+00 0.127D+01 0.185D-01 0.668D+00
 Gap=     0.209 Goal=   None    Shift=    0.000
 Gap=     0.205 Goal=   None    Shift=    0.000
 RMSDP=6.17D-03 MaxDP=2.18D-01 DE=-3.79D+00 OVMax= 1.67D-01

 Cycle   5  Pass 1  IDiag  1:
 E= -1028.92944638639     Delta-E=       -0.005128383044 Rises=F Damp=F
 DIIS: error= 2.76D-02 at cycle   5 NSaved=   5.
 NSaved= 5 IEnMin= 5 EnMin= -1028.92944638639     IErMin= 5 ErrMin= 2.76D-02
 ErrMax= 2.76D-02  0.00D+00 EMaxC= 1.00D-01 BMatC= 1.16D+00 BMatP= 1.65D+00
 IDIUse=3 WtCom= 7.24D-01 WtEn= 2.76D-01
 Coeff-Com: -0.617D+00 0.821D+00-0.726D-01 0.350D+00 0.518D+00
 Coeff-En:   0.000D+00 0.000D+00 0.000D+00 0.495D+00 0.505D+00
 Coeff:     -0.446D+00 0.594D+00-0.525D-01 0.390D+00 0.515D+00
 Gap=     0.179 Goal=   None    Shift=    0.000
 Gap=     0.185 Goal=   None    Shift=    0.000
 RMSDP=3.83D-03 MaxDP=1.85D-01 DE=-5.13D-03 OVMax= 8.94D-02

 Cycle   6  Pass 1  IDiag  1:
 E= -1029.15709642004     Delta-E=       -0.227650033654 Rises=F Damp=F
 DIIS: error= 8.22D-03 at cycle   6 NSaved=   6.
 NSaved= 6 IEnMin= 6 EnMin= -1029.15709642004     IErMin= 6 ErrMin= 8.22D-03
 ErrMax= 8.22D-03  0.00D+00 EMaxC= 1.00D-01 BMatC= 6.94D-02 BMatP= 1.16D+00
 IDIUse=3 WtCom= 9.18D-01 WtEn= 8.22D-02
 Coeff-Com: -0.719D-01 0.105D+00-0.362D-01-0.810D-01-0.235D+00 0.132D+01
 Coeff-En:   0.000D+00 0.000D+00 0.000D+00 0.000D+00 0.000D+00 0.100D+01
 Coeff:     -0.660D-01 0.962D-01-0.332D-01-0.744D-01-0.216D+00 0.129D+01
 Gap=     0.180 Goal=   None    Shift=    0.000
 Gap=     0.187 Goal=   None    Shift=    0.000
 RMSDP=1.99D-03 MaxDP=1.25D-01 DE=-2.28D-01 OVMax= 3.33D-02

 Cycle   7  Pass 1  IDiag  1:
 E= -1029.17430763799     Delta-E=       -0.017211217950 Rises=F Damp=F
 DIIS: error= 1.61D-03 at cycle   7 NSaved=   7.
 NSaved= 7 IEnMin= 7 EnMin= -1029.17430763799     IErMin= 7 ErrMin= 1.61D-03
 ErrMax= 1.61D-03  0.00D+00 EMaxC= 1.00D-01 BMatC= 2.00D-03 BMatP= 6.94D-02
 IDIUse=3 WtCom= 9.84D-01 WtEn= 1.61D-02
 Coeff-Com: -0.301D-01 0.414D-01 0.258D-02-0.387D-01-0.114D+00 0.138D+00
 Coeff-Com:  0.100D+01
 Coeff-En:   0.000D+00 0.000D+00 0.000D+00 0.000D+00 0.000D+00 0.000D+00
 Coeff-En:   0.100D+01
 Coeff:     -0.297D-01 0.408D-01 0.254D-02-0.381D-01-0.112D+00 0.136D+00
 Coeff:      0.100D+01
 Gap=     0.179 Goal=   None    Shift=    0.000
 Gap=     0.189 Goal=   None    Shift=    0.000
 RMSDP=2.78D-04 MaxDP=1.58D-02 DE=-1.72D-02 OVMax= 8.05D-03

 Cycle   8  Pass 1  IDiag  1:
 E= -1029.17486528718     Delta-E=       -0.000557649190 Rises=F Damp=F
 DIIS: error= 9.50D-04 at cycle   8 NSaved=   8.
 NSaved= 8 IEnMin= 8 EnMin= -1029.17486528718     IErMin= 8 ErrMin= 9.50D-04
 ErrMax= 9.50D-04  0.00D+00 EMaxC= 1.00D-01 BMatC= 7.37D-04 BMatP= 2.00D-03
 IDIUse=3 WtCom= 9.90D-01 WtEn= 9.50D-03
 Coeff-Com:  0.845D-02-0.118D-01 0.347D-03 0.284D-02 0.103D-01-0.162D+00
 Coeff-Com:  0.330D+00 0.822D+00
 Coeff-En:   0.000D+00 0.000D+00 0.000D+00 0.000D+00 0.000D+00 0.000D+00
 Coeff-En:   0.000D+00 0.100D+01
 Coeff:      0.837D-02-0.117D-01 0.343D-03 0.281D-02 0.102D-01-0.161D+00
 Coeff:      0.327D+00 0.824D+00
 Gap=     0.179 Goal=   None    Shift=    0.000
 Gap=     0.189 Goal=   None    Shift=    0.000
 RMSDP=1.64D-04 MaxDP=4.83D-03 DE=-5.58D-04 OVMax= 4.95D-03

 Cycle   9  Pass 1  IDiag  1:
 E= -1029.17504822187     Delta-E=       -0.000182934692 Rises=F Damp=F
 DIIS: error= 2.57D-04 at cycle   9 NSaved=   9.
 NSaved= 9 IEnMin= 9 EnMin= -1029.17504822187     IErMin= 9 ErrMin= 2.57D-04
 ErrMax= 2.57D-04  0.00D+00 EMaxC= 1.00D-01 BMatC= 6.13D-05 BMatP= 7.37D-04
 IDIUse=3 WtCom= 9.97D-01 WtEn= 2.57D-03
 Coeff-Com:  0.323D-03-0.710D-03-0.457D-04 0.193D-02 0.666D-02 0.152D-01
 Coeff-Com: -0.783D-01 0.236D-01 0.103D+01
 Coeff-En:   0.000D+00 0.000D+00 0.000D+00 0.000D+00 0.000D+00 0.000D+00
 Coeff-En:   0.000D+00 0.000D+00 0.100D+01
 Coeff:      0.322D-03-0.708D-03-0.456D-04 0.192D-02 0.664D-02 0.151D-01
 Coeff:     -0.781D-01 0.235D-01 0.103D+01
 Gap=     0.179 Goal=   None    Shift=    0.000
 Gap=     0.189 Goal=   None    Shift=    0.000
 RMSDP=9.43D-05 MaxDP=8.38D-03 DE=-1.83D-04 OVMax= 9.76D-04

 Cycle  10  Pass 1  IDiag  1:
 E= -1029.17506489779     Delta-E=       -0.000016675914 Rises=F Damp=F
 DIIS: error= 3.86D-05 at cycle  10 NSaved=  10.
 NSaved=10 IEnMin=10 EnMin= -1029.17506489779     IErMin=10 ErrMin= 3.86D-05
 ErrMax= 3.86D-05  0.00D+00 EMaxC= 1.00D-01 BMatC= 1.13D-06 BMatP= 6.13D-05
 IDIUse=1 WtCom= 1.00D+00 WtEn= 0.00D+00
 Coeff-Com: -0.599D-03 0.788D-03 0.145D-04-0.459D-03-0.912D-03 0.184D-01
 Coeff-Com: -0.472D-01-0.718D-01 0.478D-01 0.105D+01
 Coeff:     -0.599D-03 0.788D-03 0.145D-04-0.459D-03-0.912D-03 0.184D-01
 Coeff:     -0.472D-01-0.718D-01 0.478D-01 0.105D+01
 Gap=     0.179 Goal=   None    Shift=    0.000
 Gap=     0.189 Goal=   None    Shift=    0.000
 RMSDP=2.33D-05 MaxDP=1.96D-03 DE=-1.67D-05 OVMax= 5.86D-04

 Cycle  11  Pass 1  IDiag  1:
 E= -1029.17506582578     Delta-E=       -0.000000927990 Rises=F Damp=F
 DIIS: error= 1.59D-05 at cycle  11 NSaved=  11.
 NSaved=11 IEnMin=11 EnMin= -1029.17506582578     IErMin=11 ErrMin= 1.59D-05
 ErrMax= 1.59D-05  0.00D+00 EMaxC= 1.00D-01 BMatC= 2.37D-07 BMatP= 1.13D-06
 IDIUse=1 WtCom= 1.00D+00 WtEn= 0.00D+00
 Coeff-Com: -0.137D-03 0.205D-03 0.147D-04-0.261D-03-0.755D-03-0.258D-03
 Coeff-Com: -0.388D-03-0.124D-01-0.914D-01 0.187D+00 0.918D+00
 Coeff:     -0.137D-03 0.205D-03 0.147D-04-0.261D-03-0.755D-03-0.258D-03
 Coeff:     -0.388D-03-0.124D-01-0.914D-01 0.187D+00 0.918D+00
 Gap=     0.179 Goal=   None    Shift=    0.000
 Gap=     0.189 Goal=   None    Shift=    0.000
 RMSDP=3.30D-06 MaxDP=1.16D-04 DE=-9.28D-07 OVMax= 1.82D-04

 Cycle  12  Pass 1  IDiag  1:
 E= -1029.17506593902     Delta-E=       -0.000000113238 Rises=F Damp=F
 DIIS: error= 6.64D-06 at cycle  12 NSaved=  12.
 NSaved=12 IEnMin=12 EnMin= -1029.17506593902     IErMin=12 ErrMin= 6.64D-06
 ErrMax= 6.64D-06  0.00D+00 EMaxC= 1.00D-01 BMatC= 2.35D-08 BMatP= 2.37D-07
 IDIUse=1 WtCom= 1.00D+00 WtEn= 0.00D+00
 Coeff-Com: -0.600D-04 0.892D-04-0.251D-05-0.246D-04-0.101D-03-0.143D-02
 Coeff-Com:  0.305D-02 0.102D-02-0.223D-01-0.270D-01 0.219D+00 0.828D+00
 Coeff:     -0.600D-04 0.892D-04-0.251D-05-0.246D-04-0.101D-03-0.143D-02
 Coeff:      0.305D-02 0.102D-02-0.223D-01-0.270D-01 0.219D+00 0.828D+00
 Gap=     0.179 Goal=   None    Shift=    0.000
 Gap=     0.189 Goal=   None    Shift=    0.000
 RMSDP=1.31D-06 MaxDP=7.76D-05 DE=-1.13D-07 OVMax= 5.89D-05

 Cycle  13  Pass 1  IDiag  1:
 E= -1029.17506594792     Delta-E=       -0.000000008904 Rises=F Damp=F
 DIIS: error= 3.70D-06 at cycle  13 NSaved=  13.
 NSaved=13 IEnMin=13 EnMin= -1029.17506594792     IErMin=13 ErrMin= 3.70D-06
 ErrMax= 3.70D-06  0.00D+00 EMaxC= 1.00D-01 BMatC= 8.06D-09 BMatP= 2.35D-08
 IDIUse=1 WtCom= 1.00D+00 WtEn= 0.00D+00
 Coeff-Com: -0.182D-04 0.238D-04-0.720D-05 0.710D-04 0.179D-03-0.581D-03
 Coeff-Com:  0.145D-02 0.344D-02 0.187D-01-0.683D-01-0.168D+00 0.457D+00
 Coeff-Com:  0.756D+00
 Coeff:     -0.182D-04 0.238D-04-0.720D-05 0.710D-04 0.179D-03-0.581D-03
 Coeff:      0.145D-02 0.344D-02 0.187D-01-0.683D-01-0.168D+00 0.457D+00
 Coeff:      0.756D+00
 Gap=     0.179 Goal=   None    Shift=    0.000
 Gap=     0.189 Goal=   None    Shift=    0.000
 RMSDP=8.14D-07 MaxDP=5.01D-05 DE=-8.90D-09 OVMax= 4.16D-05

 Cycle  14  Pass 1  IDiag  1:
 E= -1029.17506595103     Delta-E=       -0.000000003112 Rises=F Damp=F
 DIIS: error= 1.65D-06 at cycle  14 NSaved=  14.
 NSaved=14 IEnMin=14 EnMin= -1029.17506595103     IErMin=14 ErrMin= 1.65D-06
 ErrMax= 1.65D-06  0.00D+00 EMaxC= 1.00D-01 BMatC= 3.68D-10 BMatP= 8.06D-09
 IDIUse=1 WtCom= 1.00D+00 WtEn= 0.00D+00
 Coeff-Com:  0.112D-04-0.153D-04 0.379D-05-0.765D-05-0.330D-04 0.249D-03
 Coeff-Com: -0.593D-03-0.127D-02-0.944D-03 0.162D-01 0.233D-01-0.163D+00
 Coeff-Com: -0.179D+00 0.130D+01
 Coeff:      0.112D-04-0.153D-04 0.379D-05-0.765D-05-0.330D-04 0.249D-03
 Coeff:     -0.593D-03-0.127D-02-0.944D-03 0.162D-01 0.233D-01-0.163D+00
 Coeff:     -0.179D+00 0.130D+01
 Gap=     0.179 Goal=   None    Shift=    0.000
 Gap=     0.189 Goal=   None    Shift=    0.000
 RMSDP=2.60D-07 MaxDP=1.12D-05 DE=-3.11D-09 OVMax= 2.16D-05

 Cycle  15  Pass 1  IDiag  1:
 E= -1029.17506595130     Delta-E=       -0.000000000272 Rises=F Damp=F
 DIIS: error= 4.70D-07 at cycle  15 NSaved=  15.
 NSaved=15 IEnMin=15 EnMin= -1029.17506595130     IErMin=15 ErrMin= 4.70D-07
 ErrMax= 4.70D-07  0.00D+00 EMaxC= 1.00D-01 BMatC= 1.14D-10 BMatP= 3.68D-10
 IDIUse=1 WtCom= 1.00D+00 WtEn= 0.00D+00
 Coeff-Com:  0.216D-05-0.302D-05 0.239D-06-0.542D-05-0.550D-05-0.147D-04
 Coeff-Com:  0.875D-04-0.712D-04-0.227D-02 0.333D-02 0.126D-01-0.158D-01
 Coeff-Com: -0.418D-01-0.169D+00 0.121D+01
 Coeff:      0.216D-05-0.302D-05 0.239D-06-0.542D-05-0.550D-05-0.147D-04
 Coeff:      0.875D-04-0.712D-04-0.227D-02 0.333D-02 0.126D-01-0.158D-01
 Coeff:     -0.418D-01-0.169D+00 0.121D+01
 Gap=     0.179 Goal=   None    Shift=    0.000
 Gap=     0.189 Goal=   None    Shift=    0.000
 RMSDP=8.54D-08 MaxDP=5.16D-06 DE=-2.72D-10 OVMax= 7.41D-06

 Cycle  16  Pass 1  IDiag  1:
 E= -1029.17506595135     Delta-E=       -0.000000000045 Rises=F Damp=F
 DIIS: error= 1.44D-07 at cycle  16 NSaved=  16.
 NSaved=16 IEnMin=16 EnMin= -1029.17506595135     IErMin=16 ErrMin= 1.44D-07
 ErrMax= 1.44D-07  0.00D+00 EMaxC= 1.00D-01 BMatC= 6.48D-12 BMatP= 1.14D-10
 IDIUse=1 WtCom= 1.00D+00 WtEn= 0.00D+00
 Coeff-Com:  0.643D-07-0.133D-06-0.266D-06-0.187D-05-0.945D-07-0.266D-04
 Coeff-Com:  0.868D-04 0.946D-04-0.907D-03-0.358D-04 0.349D-02 0.699D-02
 Coeff-Com: -0.199D-02-0.175D+00 0.440D+00 0.727D+00
 Coeff:      0.643D-07-0.133D-06-0.266D-06-0.187D-05-0.945D-07-0.266D-04
 Coeff:      0.868D-04 0.946D-04-0.907D-03-0.358D-04 0.349D-02 0.699D-02
 Coeff:     -0.199D-02-0.175D+00 0.440D+00 0.727D+00
 Gap=     0.179 Goal=   None    Shift=    0.000
 Gap=     0.189 Goal=   None    Shift=    0.000
 RMSDP=1.84D-08 MaxDP=1.01D-06 DE=-4.50D-11 OVMax= 1.66D-06

 Cycle  17  Pass 1  IDiag  1:
 E= -1029.17506595135     Delta-E=       -0.000000000001 Rises=F Damp=F
 DIIS: error= 6.54D-08 at cycle  17 NSaved=  17.
 NSaved=17 IEnMin=17 EnMin= -1029.17506595135     IErMin=17 ErrMin= 6.54D-08
 ErrMax= 6.54D-08  0.00D+00 EMaxC= 1.00D-01 BMatC= 6.58D-13 BMatP= 6.48D-12
 IDIUse=1 WtCom= 1.00D+00 WtEn= 0.00D+00
 Coeff-Com: -0.436D-06 0.600D-06-0.112D-06 0.513D-06-0.236D-06 0.407D-05
 Coeff-Com: -0.199D-04 0.256D-04 0.344D-03-0.543D-03-0.173D-02 0.264D-02
 Coeff-Com:  0.653D-02 0.218D-01-0.246D+00 0.178D+00 0.104D+01
 Coeff:     -0.436D-06 0.600D-06-0.112D-06 0.513D-06-0.236D-06 0.407D-05
 Coeff:     -0.199D-04 0.256D-04 0.344D-03-0.543D-03-0.173D-02 0.264D-02
 Coeff:      0.653D-02 0.218D-01-0.246D+00 0.178D+00 0.104D+01
 Gap=     0.179 Goal=   None    Shift=    0.000
 Gap=     0.189 Goal=   None    Shift=    0.000
 RMSDP=1.09D-08 MaxDP=6.44D-07 DE=-1.36D-12 OVMax= 1.06D-06

 Cycle  18  Pass 1  IDiag  1:
 E= -1029.17506595134     Delta-E=        0.000000000006 Rises=F Damp=F
 DIIS: error= 1.20D-08 at cycle  18 NSaved=  18.
 NSaved=18 IEnMin=17 EnMin= -1029.17506595135     IErMin=18 ErrMin= 1.20D-08
 ErrMax= 1.20D-08  0.00D+00 EMaxC= 1.00D-01 BMatC= 1.87D-13 BMatP= 6.58D-13
 IDIUse=1 WtCom= 1.00D+00 WtEn= 0.00D+00
 Coeff-Com: -0.169D-06 0.236D-06-0.158D-07 0.161D-06-0.158D-06 0.279D-05
 Coeff-Com: -0.101D-04-0.555D-05 0.121D-03-0.572D-04-0.496D-03-0.808D-05
 Coeff-Com:  0.995D-03 0.126D-01-0.640D-01-0.116D-01 0.179D+00 0.884D+00
 Coeff:     -0.169D-06 0.236D-06-0.158D-07 0.161D-06-0.158D-06 0.279D-05
 Coeff:     -0.101D-04-0.555D-05 0.121D-03-0.572D-04-0.496D-03-0.808D-05
 Coeff:      0.995D-03 0.126D-01-0.640D-01-0.116D-01 0.179D+00 0.884D+00
 Gap=     0.179 Goal=   None    Shift=    0.000
 Gap=     0.189 Goal=   None    Shift=    0.000
 RMSDP=2.40D-09 MaxDP=1.28D-07 DE= 6.37D-12 OVMax= 1.42D-07

 SCF Done:  E(UwB97XD) =  -1029.17506595     A.U. after   18 cycles
            NFock= 18  Conv=0.24D-08     -V/T= 3.6214
 <Sx>= 0.0000 <Sy>= 0.0000 <Sz>= 0.5000 <S**2>= 0.7548 S= 0.5024
 <L.S>=  0.00000000000    
 KE= 3.926025561087D+02 PE=-4.771837104366D+03 EE= 2.074023102146D+03
 Annihilation of the first spin contaminant:
 S**2 before annihilation     0.7548,   after     0.7500
 Leave Link  502 at Mon Feb 24 13:28:55 2025, MaxMem=  2097152000 cpu:             150.4 elap:              42.1
 (Enter /nvme/h/buildsets/eb_nepheli/software/Gaussian/16.C.01-AVX2/g16/l508.exe)
 QCSCF skips out because SCF is already converged.
 Leave Link  508 at Mon Feb 24 13:28:55 2025, MaxMem=  2097152000 cpu:               0.0 elap:               0.0
 (Enter /nvme/h/buildsets/eb_nepheli/software/Gaussian/16.C.01-AVX2/g16/l601.exe)
 Copying SCF densities to generalized density rwf, IOpCl= 1 IROHF=0.

 **********************************************************************

            Population analysis using the SCF Density.

 **********************************************************************

 Orbital symmetries:
 Alpha Orbitals:
       Occupied  (A) (A) (A) (A) (A) (A) (A) (A) (A) (A) (A) (A)
                 (A) (A) (A) (A) (A) (A) (A) (A) (A) (A) (A) (A)
                 (A) (A) (A) (A) (A) (A) (A) (A) (A) (A) (A) (A)
                 (A) (A) (A) (A) (A) (A) (A) (A) (A) (A) (A) (A)
                 (A) (A) (A) (A) (A) (A) (A) (A) (A) (A) (A) (A)
                 (A) (A) (A) (A) (A) (A) (A)
       Virtual   (A) (A) (A) (A) (A) (A) (A) (A) (A) (A) (A) (A)
                 (A) (A) (A) (A) (A) (A) (A) (A) (A) (A) (A) (A)
                 (A) (A) (A) (A) (A) (A) (A) (A) (A) (A) (A) (A)
                 (A) (A) (A) (A) (A) (A) (A) (A) (A) (A) (A) (A)
                 (A) (A) (A) (A) (A) (A) (A) (A) (A) (A) (A) (A)
                 (A) (A) (A) (A) (A) (A) (A) (A) (A) (A) (A) (A)
                 (A) (A) (A) (A) (A) (A) (A) (A) (A) (A) (A) (A)
                 (A) (A) (A) (A) (A) (A) (A) (A) (A) (A) (A) (A)
                 (A) (A) (A) (A) (A) (A) (A) (A) (A) (A) (A) (A)
                 (A) (A) (A) (A) (A) (A) (A) (A) (A) (A) (A) (A)
                 (A) (A) (A) (A) (A) (A) (A) (A) (A) (A) (A) (A)
                 (A) (A) (A) (A) (A) (A) (A) (A) (A) (A) (A) (A)
                 (A) (A) (A) (A) (A) (A)
 Beta  Orbitals:
       Occupied  (A) (A) (A) (A) (A) (A) (A) (A) (A) (A) (A) (A)
                 (A) (A) (A) (A) (A) (A) (A) (A) (A) (A) (A) (A)
                 (A) (A) (A) (A) (A) (A) (A) (A) (A) (A) (A) (A)
                 (A) (A) (A) (A) (A) (A) (A) (A) (A) (A) (A) (A)
                 (A) (A) (A) (A) (A) (A) (A) (A) (A) (A) (A) (A)
                 (A) (A) (A) (A) (A) (A)
       Virtual   (A) (A) (A) (A) (A) (A) (A) (A) (A) (A) (A) (A)
                 (A) (A) (A) (A) (A) (A) (A) (A) (A) (A) (A) (A)
                 (A) (A) (A) (A) (A) (A) (A) (A) (A) (A) (A) (A)
                 (A) (A) (A) (A) (A) (A) (A) (A) (A) (A) (A) (A)
                 (A) (A) (A) (A) (A) (A) (A) (A) (A) (A) (A) (A)
                 (A) (A) (A) (A) (A) (A) (A) (A) (A) (A) (A) (A)
                 (A) (A) (A) (A) (A) (A) (A) (A) (A) (A) (A) (A)
                 (A) (A) (A) (A) (A) (A) (A) (A) (A) (A) (A) (A)
                 (A) (A) (A) (A) (A) (A) (A) (A) (A) (A) (A) (A)
                 (A) (A) (A) (A) (A) (A) (A) (A) (A) (A) (A) (A)
                 (A) (A) (A) (A) (A) (A) (A) (A) (A) (A) (A) (A)
                 (A) (A) (A) (A) (A) (A) (A) (A) (A) (A) (A) (A)
                 (A) (A) (A) (A) (A) (A) (A)
 The electronic state is 2-A.
 Alpha  occ. eigenvalues --   -3.84531  -3.84527  -3.84254  -3.84246  -3.84245
 Alpha  occ. eigenvalues --   -3.84230  -3.84229  -2.42810  -2.42768  -2.42768
 Alpha  occ. eigenvalues --   -2.42689  -2.42689  -2.42654  -2.42538  -2.42537
 Alpha  occ. eigenvalues --   -2.42512  -2.42489  -2.42489  -2.42425  -2.42425
 Alpha  occ. eigenvalues --   -2.42318  -2.42308  -2.42307  -2.42301  -2.42301
 Alpha  occ. eigenvalues --   -2.42296  -2.42296  -2.42237  -0.47049  -0.46289
 Alpha  occ. eigenvalues --   -0.46288  -0.45500  -0.45495  -0.44693  -0.44666
 Alpha  occ. eigenvalues --   -0.44664  -0.44397  -0.44394  -0.44266  -0.43182
 Alpha  occ. eigenvalues --   -0.43176  -0.42388  -0.42384  -0.41865  -0.41862
 Alpha  occ. eigenvalues --   -0.41499  -0.40781  -0.40779  -0.40598  -0.40597
 Alpha  occ. eigenvalues --   -0.40482  -0.40480  -0.39820  -0.39645  -0.39417
 Alpha  occ. eigenvalues --   -0.39415  -0.39279  -0.39278  -0.38925  -0.38728
 Alpha  occ. eigenvalues --   -0.38726  -0.38649  -0.38427  -0.38424  -0.25325
 Alpha  occ. eigenvalues --   -0.25323  -0.21088
 Alpha virt. eigenvalues --   -0.03161  -0.03158  -0.02369   0.01337   0.01339
 Alpha virt. eigenvalues --    0.01904   0.05372   0.05373   0.06360   0.06362
 Alpha virt. eigenvalues --    0.09632   0.10711   0.11265   0.11267   0.13347
 Alpha virt. eigenvalues --    0.13348   0.13981   0.14729   0.14731   0.14990
 Alpha virt. eigenvalues --    0.14991   0.17123   0.17124   0.20524   0.24537
 Alpha virt. eigenvalues --    0.24539   0.25159   0.26701   0.27856   0.27858
 Alpha virt. eigenvalues --    0.28444   0.31175   0.31179   0.31402   0.31407
 Alpha virt. eigenvalues --    0.32390   0.32391   0.34246   0.36446   0.39141
 Alpha virt. eigenvalues --    0.39144   0.40373   0.40376   0.45350   0.45359
 Alpha virt. eigenvalues --    0.46860   0.46862   0.47628   0.47631   0.48341
 Alpha virt. eigenvalues --    0.50910   0.53813   0.53816   0.56146   0.62695
 Alpha virt. eigenvalues --    0.62700   0.66605   0.66611   0.67125   0.67128
 Alpha virt. eigenvalues --    0.67473   0.67476   0.67730   0.69689   0.69693
 Alpha virt. eigenvalues --    0.75354   0.75501   0.75505   0.76093   0.79063
 Alpha virt. eigenvalues --    0.79072   0.81005   0.81038   0.81051   0.83961
 Alpha virt. eigenvalues --    0.84826   0.84954   0.84967   0.86389   0.86399
 Alpha virt. eigenvalues --    0.86637   0.86646   0.93193   0.93199   1.02146
 Alpha virt. eigenvalues --    1.02154   1.02842   2.13878   2.27654   2.27656
 Alpha virt. eigenvalues --    2.30549   2.30562   2.35683   2.36310   2.67600
 Alpha virt. eigenvalues --    2.67600   2.67679   2.67680   2.67704   2.67705
 Alpha virt. eigenvalues --    2.67795   2.67795   2.67803   2.67804   2.67881
 Alpha virt. eigenvalues --    2.67886   2.67887   2.67889   2.67896   2.67896
 Alpha virt. eigenvalues --    2.68045   2.68073   2.68073   2.68089   2.68090
 Alpha virt. eigenvalues --    2.68258   2.68259   2.68265   2.68339   2.68340
 Alpha virt. eigenvalues --    2.68390   2.68391   2.68596   2.68597   2.68677
 Alpha virt. eigenvalues --    2.68678   2.69200   2.69466   2.69647   2.69649
 Alpha virt. eigenvalues --    2.69749   2.70152   2.70155   2.70189   2.70190
 Alpha virt. eigenvalues --    2.70315   2.70317   2.70503   2.70505   2.72143
 Alpha virt. eigenvalues --    2.72151   2.72558   2.72685  54.30987  54.41298
 Alpha virt. eigenvalues --   54.41300  54.42270  54.42279  54.47850  54.48259
  Beta  occ. eigenvalues --   -3.84376  -3.84370  -3.84211  -3.84204  -3.84203
  Beta  occ. eigenvalues --   -3.84189  -3.84187  -2.42707  -2.42678  -2.42677
  Beta  occ. eigenvalues --   -2.42572  -2.42571  -2.42525  -2.42516  -2.42515
  Beta  occ. eigenvalues --   -2.42429  -2.42413  -2.42413  -2.42381  -2.42381
  Beta  occ. eigenvalues --   -2.42282  -2.42282  -2.42242  -2.42240  -2.42239
  Beta  occ. eigenvalues --   -2.42230  -2.42223  -2.42223  -0.46758  -0.46182
  Beta  occ. eigenvalues --   -0.46181  -0.45437  -0.45433  -0.44545  -0.44543
  Beta  occ. eigenvalues --   -0.44481  -0.44228  -0.44225  -0.44222  -0.43165
  Beta  occ. eigenvalues --   -0.43160  -0.42296  -0.42292  -0.41784  -0.41781
  Beta  occ. eigenvalues --   -0.41279  -0.40706  -0.40704  -0.40584  -0.40583
  Beta  occ. eigenvalues --   -0.40452  -0.40451  -0.39647  -0.39453  -0.39328
  Beta  occ. eigenvalues --   -0.39327  -0.39054  -0.39054  -0.38627  -0.38529
  Beta  occ. eigenvalues --   -0.38527  -0.38388  -0.38385  -0.37739  -0.25076
  Beta  occ. eigenvalues --   -0.25073
  Beta virt. eigenvalues --   -0.06141  -0.03216  -0.03213  -0.02142   0.02116
  Beta virt. eigenvalues --    0.02118   0.03458   0.05483   0.05485   0.06294
  Beta virt. eigenvalues --    0.06295   0.09897   0.11027   0.11029   0.11425
  Beta virt. eigenvalues --    0.12691   0.12691   0.14127   0.14687   0.14689
  Beta virt. eigenvalues --    0.14933   0.14935   0.17001   0.17001   0.20509
  Beta virt. eigenvalues --    0.23853   0.23855   0.25330   0.26842   0.27734
  Beta virt. eigenvalues --    0.27737   0.28391   0.30923   0.30928   0.31311
  Beta virt. eigenvalues --    0.31314   0.32340   0.32342   0.34210   0.37236
  Beta virt. eigenvalues --    0.39234   0.39238   0.40466   0.40469   0.45463
  Beta virt. eigenvalues --    0.45472   0.47073   0.47074   0.47732   0.47736
  Beta virt. eigenvalues --    0.48322   0.50912   0.53905   0.53908   0.56039
  Beta virt. eigenvalues --    0.62741   0.62747   0.66734   0.66740   0.67068
  Beta virt. eigenvalues --    0.67074   0.67475   0.67478   0.67960   0.69692
  Beta virt. eigenvalues --    0.69697   0.75321   0.75621   0.75627   0.76252
  Beta virt. eigenvalues --    0.79125   0.79134   0.81013   0.81025   0.81172
  Beta virt. eigenvalues --    0.84332   0.84734   0.84964   0.84977   0.86423
  Beta virt. eigenvalues --    0.86434   0.86679   0.86688   0.93328   0.93334
  Beta virt. eigenvalues --    1.02223   1.02231   1.02852   2.13984   2.27681
  Beta virt. eigenvalues --    2.27683   2.30557   2.30569   2.35885   2.36591
  Beta virt. eigenvalues --    2.67735   2.67736   2.67738   2.67738   2.67753
  Beta virt. eigenvalues --    2.67754   2.67841   2.67842   2.67860   2.67860
  Beta virt. eigenvalues --    2.67905   2.67919   2.67919   2.67922   2.67949
  Beta virt. eigenvalues --    2.67950   2.68123   2.68123   2.68138   2.68138
  Beta virt. eigenvalues --    2.68144   2.68298   2.68299   2.68314   2.68359
  Beta virt. eigenvalues --    2.68360   2.68424   2.68424   2.68628   2.68628
  Beta virt. eigenvalues --    2.68709   2.68709   2.69290   2.69609   2.69716
  Beta virt. eigenvalues --    2.69718   2.69751   2.70215   2.70218   2.70261
  Beta virt. eigenvalues --    2.70263   2.70370   2.70372   2.70526   2.70528
  Beta virt. eigenvalues --    2.72186   2.72193   2.72631   2.72767  54.30968
  Beta virt. eigenvalues --   54.41298  54.41300  54.42270  54.42279  54.47788
  Beta virt. eigenvalues --   54.48177
          Condensed to atoms (all electrons):
               1          2          3          4          5          6
     1  Ag  18.503540   0.116794   0.116873   0.008135   0.008122   0.104071
     2  Ag   0.116794  18.503580   0.008139   0.116807   0.008126   0.104084
     3  Ag   0.116873   0.008139  18.503341   0.008178   0.116805   0.103977
     4  Ag   0.008135   0.116807   0.008178  18.503310   0.116880   0.103955
     5  Ag   0.008122   0.008126   0.116805   0.116880  18.503836   0.104051
     6  Ag   0.104071   0.104084   0.103977   0.103955   0.104051  18.836395
     7  Ag   0.104059   0.104095   0.103989   0.103951   0.104043  -0.260330
               7
     1  Ag   0.104059
     2  Ag   0.104095
     3  Ag   0.103989
     4  Ag   0.103951
     5  Ag   0.104043
     6  Ag  -0.260330
     7  Ag  18.836398
          Atomic-Atomic Spin Densities.
               1          2          3          4          5          6
     1  Ag   0.011365   0.003694   0.003703  -0.000056  -0.000054   0.012773
     2  Ag   0.003694   0.011317  -0.000037   0.003689  -0.000066   0.012740
     3  Ag   0.003703  -0.000037   0.011330  -0.000059   0.003700   0.012756
     4  Ag  -0.000056   0.003689  -0.000059   0.011412   0.003684   0.012815
     5  Ag  -0.000054  -0.000066   0.003700   0.003684   0.011359   0.012803
     6  Ag   0.012773   0.012740   0.012756   0.012815   0.012803   0.668432
     7  Ag   0.012762   0.012752   0.012770   0.012810   0.012793  -0.342799
               7
     1  Ag   0.012762
     2  Ag   0.012752
     3  Ag   0.012770
     4  Ag   0.012810
     5  Ag   0.012793
     6  Ag  -0.342799
     7  Ag   0.668435
 Mulliken charges and spin densities:
               1          2
     1  Ag   0.038408   0.044188
     2  Ag   0.038375   0.044090
     3  Ag   0.038699   0.044163
     4  Ag   0.038785   0.044295
     5  Ag   0.038137   0.044219
     6  Ag  -0.096201   0.389521
     7  Ag  -0.096204   0.389524
 Sum of Mulliken charges =  -0.00000   1.00000
 Mulliken charges and spin densities with hydrogens summed into heavy atoms:
               1          2
     1  Ag   0.038408   0.044188
     2  Ag   0.038375   0.044090
     3  Ag   0.038699   0.044163
     4  Ag   0.038785   0.044295
     5  Ag   0.038137   0.044219
     6  Ag  -0.096201   0.389521
     7  Ag  -0.096204   0.389524
 Electronic spatial extent (au):  <R**2>=           2589.7336
 Charge=             -0.0000 electrons
 Dipole moment (field-independent basis, Debye):
    X=              0.0011    Y=              0.0001    Z=              0.0000  Tot=              0.0011
 Quadrupole moment (field-independent basis, Debye-Ang):
   XX=           -131.2611   YY=           -131.2636   ZZ=           -142.3594
   XY=              0.0034   XZ=             -0.0000   YZ=              0.0000
 Traceless Quadrupole moment (field-independent basis, Debye-Ang):
   XX=              3.7003   YY=              3.6978   ZZ=             -7.3981
   XY=              0.0034   XZ=             -0.0000   YZ=              0.0000
 Octapole moment (field-independent basis, Debye-Ang**2):
  XXX=              0.0136  YYY=              0.0008  ZZZ=              0.0000  XYY=              0.0108
  XXY=              0.0014  XXZ=              0.0000  XZZ=              0.0010  YZZ=              0.0010
  YYZ=             -0.0000  XYZ=              0.0000
 Hexadecapole moment (field-independent basis, Debye-Ang**3):
 XXXX=          -1774.1438 YYYY=          -1773.9263 ZZZZ=           -775.0492 XXXY=              0.0596
 XXXZ=              0.0003 YYYX=              0.0092 YYYZ=              0.0015 ZZZX=              0.0008
 ZZZY=              0.0020 XXYY=           -591.3313 XXZZ=           -458.9325 YYZZ=           -458.8915
 XXYZ=              0.0012 YYXZ=              0.0004 ZZXY=              0.0027
 N-N= 1.276036380159D+03 E-N=-4.771837099307D+03  KE= 3.926025561087D+02
                          Isotropic Fermi Contact Couplings
        Atom                 a.u.       MegaHertz       Gauss      10(-4) cm-1
     1  Ag(107            -0.00000       0.00084       0.00030       0.00028
     2  Ag(107            -0.00000       0.00084       0.00030       0.00028
     3  Ag(107            -0.00000       0.00084       0.00030       0.00028
     4  Ag(107            -0.00000       0.00083       0.00030       0.00028
     5  Ag(107            -0.00000       0.00083       0.00030       0.00028
     6  Ag(107             0.00013      -0.02429      -0.00867      -0.00810
     7  Ag(107             0.00013      -0.02429      -0.00867      -0.00810
 --------------------------------------------------------
       Center         ----  Spin Dipole Couplings  ----
                      3XX-RR        3YY-RR        3ZZ-RR
 --------------------------------------------------------
     1   Atom       -0.014702      0.003564      0.011137
     2   Atom        0.000734     -0.011869      0.011135
     3   Atom        0.002917     -0.014059      0.011141
     4   Atom       -0.006639     -0.004519      0.011158
     5   Atom       -0.010157     -0.000992      0.011149
     6   Atom        0.012287      0.012262     -0.024549
     7   Atom        0.012289      0.012260     -0.024549
 --------------------------------------------------------
                        XY            XZ            YZ
 --------------------------------------------------------
     1   Atom       -0.001862     -0.000000      0.000001
     2   Atom        0.006866     -0.000001     -0.000001
     3   Atom       -0.003865      0.000001     -0.000000
     4   Atom       -0.009255      0.000001      0.000000
     5   Atom        0.008107     -0.000001     -0.000000
     6   Atom       -0.000005      0.000013     -0.000017
     7   Atom       -0.000005     -0.000013      0.000017
 --------------------------------------------------------


 ---------------------------------------------------------------------------------
              Anisotropic Spin Dipole Couplings in Principal Axis System
 ---------------------------------------------------------------------------------

       Atom             a.u.   MegaHertz   Gauss  10(-4) cm-1        Axes

              Baa    -0.0149     0.323     0.115     0.108  0.9949  0.1004  0.0000
     1 Ag(107 Bbb     0.0038    -0.081    -0.029    -0.027 -0.1004  0.9949 -0.0001
              Bcc     0.0111    -0.242    -0.086    -0.081 -0.0000  0.0001  1.0000
 
              Baa    -0.0149     0.323     0.115     0.108 -0.4024  0.9155  0.0000
     2 Ag(107 Bbb     0.0038    -0.081    -0.029    -0.027  0.9155  0.4024  0.0001
              Bcc     0.0111    -0.242    -0.086    -0.081 -0.0001 -0.0001  1.0000
 
              Baa    -0.0149     0.323     0.115     0.108  0.2120  0.9773  0.0000
     3 Ag(107 Bbb     0.0038    -0.081    -0.029    -0.027  0.9773 -0.2120 -0.0001
              Bcc     0.0111    -0.242    -0.086    -0.081  0.0001 -0.0000  1.0000
 
              Baa    -0.0149     0.323     0.115     0.108  0.7463  0.6657 -0.0000
     4 Ag(107 Bbb     0.0037    -0.081    -0.029    -0.027 -0.6657  0.7463  0.0000
              Bcc     0.0112    -0.242    -0.086    -0.081  0.0000 -0.0000  1.0000
 
              Baa    -0.0149     0.323     0.115     0.108  0.8637 -0.5040  0.0000
     5 Ag(107 Bbb     0.0037    -0.081    -0.029    -0.027  0.5040  0.8637  0.0001
              Bcc     0.0111    -0.242    -0.086    -0.081 -0.0001 -0.0001  1.0000
 
              Baa    -0.0245     0.533     0.190     0.178 -0.0004  0.0005  1.0000
     6 Ag(107 Bbb     0.0123    -0.266    -0.095    -0.089  0.1980  0.9802 -0.0004
              Bcc     0.0123    -0.267    -0.095    -0.089  0.9802 -0.1980  0.0004
 
              Baa    -0.0245     0.533     0.190     0.178  0.0004 -0.0005  1.0000
     7 Ag(107 Bbb     0.0123    -0.266    -0.095    -0.089  0.1615  0.9869  0.0004
              Bcc     0.0123    -0.267    -0.095    -0.089  0.9869 -0.1615 -0.0004
 

 ---------------------------------------------------------------------------------

 No NMR shielding tensors so no spin-rotation constants.
 Leave Link  601 at Mon Feb 24 13:28:55 2025, MaxMem=  2097152000 cpu:               0.8 elap:               0.3
 (Enter /nvme/h/buildsets/eb_nepheli/software/Gaussian/16.C.01-AVX2/g16/l701.exe)
 ... and contract with generalized density number  0.
 Compute integral first derivatives.
 R6Disp: Adding Grimme-D2 dispersion energy 1st derivatives to the gradient.
   1 Symmetry operations used in ECPInt.
 ECPInt:  NShTT=    3003 NPrTT=    9016 LenC2=    2979 LenP2D=    7964.
 LDataN:  DoStor=T MaxTD1= 8 Len=  415
 Leave Link  701 at Mon Feb 24 13:28:58 2025, MaxMem=  2097152000 cpu:              12.7 elap:               3.2
 (Enter /nvme/h/buildsets/eb_nepheli/software/Gaussian/16.C.01-AVX2/g16/l702.exe)
 L702 exits ... SP integral derivatives will be done elsewhere.
 Leave Link  702 at Mon Feb 24 13:28:58 2025, MaxMem=  2097152000 cpu:               0.0 elap:               0.0
 (Enter /nvme/h/buildsets/eb_nepheli/software/Gaussian/16.C.01-AVX2/g16/l703.exe)
 Integral derivatives from FoFJK, PRISM(SPDF).
 Compute integral first derivatives, UseDBF=F ICtDFT=           0.
 Calling FoFJK, ICntrl=      2127 FMM=F ISym2X=0 I1Cent= 0 IOpClX= 1 NMat=1 NMatS=1 NMatT=0.
 FoFJK:  IHMeth= 1 ICntrl=    2127 DoSepK=T KAlg= 0 I1Cent=           0 FoldK=F
 IRaf=         1 NMat=       1 IRICut=       1 DoRegI=T DoRafI=F ISym2E= 0 IDoP0=0 IntGTp=1.
 FoFCou: FMM=F IPFlag=           0 FMFlag=      100000 FMFlg1=         800
         NFxFlg=           0 DoJE=F BraDBF=F KetDBF=F FulRan=T
         wScrn=  0.000000 ICntrl=      2527 IOpCl=  0 I1Cent=           0 NGrid=           0
         NMat0=    1 NMatS0=      1 NMatT0=    0 NMatD0=    1 NMtDS0=    0 NMtDT0=    0
 Symmetry not used in FoFCou.
 Defaulting to unpruned grid for atomic number  47.
 Defaulting to unpruned grid for atomic number  47.
 Defaulting to unpruned grid for atomic number  47.
 Defaulting to unpruned grid for atomic number  47.
 Leave Link  703 at Mon Feb 24 13:29:22 2025, MaxMem=  2097152000 cpu:              93.7 elap:              23.6
 (Enter /nvme/h/buildsets/eb_nepheli/software/Gaussian/16.C.01-AVX2/g16/l716.exe)
 Dipole        = 4.37298795D-04 3.67533087D-05 1.82357040D-06
 ***** Axes restored to original set *****
 -------------------------------------------------------------------
 Center     Atomic                   Forces (Hartrees/Bohr)
 Number     Number              X              Y              Z
 -------------------------------------------------------------------
      1       47          -0.000013728   -0.000032056    0.000000681
      2       47           0.000065689   -0.000027045   -0.000000156
      3       47           0.000083636   -0.000001703   -0.000000223
      4       47           0.000012811    0.000067850    0.000000004
      5       47          -0.000011688   -0.000027294    0.000000078
      6       47          -0.000068303    0.000010496    0.000151865
      7       47          -0.000068417    0.000009752   -0.000152249
 -------------------------------------------------------------------
 Cartesian Forces:  Max     0.000152249 RMS     0.000059644
 Z-matrix is all fixed cartesians, so copy forces.
 Force constants in Cartesian coordinates: 
                1             2             3             4             5 
      1  0.152667D+00
      2  0.764291D-02  0.235836D+00
      3  0.000000D+00  0.000000D+00  0.963757D-01
      4 -0.596401D-01 -0.435685D-02  0.000000D+00  0.232288D+00
      5  0.494692D-01 -0.535412D-01 -0.108228D-05  0.183816D-01  0.156070D+00
      6  0.000000D+00  0.000000D+00 -0.780720D-02  0.000000D+00  0.000000D+00
      7 -0.675796D-01  0.680978D-02  0.000000D+00 -0.998188D-02  0.149449D-02
      8 -0.470414D-01 -0.459077D-01 -0.116044D-05  0.216333D-02  0.101147D-01
      9 -0.129519D-05  0.000000D+00 -0.782878D-02  0.000000D+00  0.000000D+00
     10  0.926687D-02  0.476197D-02  0.000000D+00 -0.409181D-01 -0.434236D-01
     11  0.409033D-02 -0.913812D-02  0.000000D+00  0.104162D-01 -0.724231D-01
     12  0.000000D+00  0.000000D+00  0.108439D-01  0.000000D+00  0.000000D+00
     13  0.712402D-02 -0.772379D-02  0.000000D+00 -0.477880D-02 -0.865154D-02
     14 -0.705506D-02 -0.698740D-02  0.000000D+00 -0.932546D-02  0.491622D-02
     15  0.000000D+00  0.000000D+00  0.108383D-01  0.000000D+00  0.000000D+00
     16 -0.209198D-01 -0.356717D-02  0.484445D-02 -0.584840D-01 -0.863500D-02
     17 -0.355321D-02 -0.601330D-01  0.537242D-01 -0.863938D-02 -0.225681D-01
     18 -0.949249D-04 -0.103740D-02 -0.512119D-01 -0.101857D-02 -0.229097D-03
     19 -0.209183D-01 -0.356685D-02 -0.484422D-02 -0.584854D-01 -0.863516D-02
     20 -0.355273D-02 -0.601282D-01 -0.537221D-01 -0.863950D-02 -0.225686D-01
     21  0.950735D-04  0.103839D-02 -0.512100D-01  0.101862D-02  0.228931D-03
                6             7             8             9            10 
      6  0.963733D-01
      7  0.000000D+00  0.223626D+00
      8  0.000000D+00 -0.305751D-01  0.165219D+00
      9  0.108396D-01  0.117461D-05  0.000000D+00  0.964423D-01
     10  0.000000D+00 -0.129694D-02  0.978765D-02  0.000000D+00  0.174273D+00
     11  0.000000D+00  0.104605D-01  0.142748D-02  0.000000D+00 -0.372679D-01
     12 -0.781582D-02  0.000000D+00  0.000000D+00  0.108449D-01  0.000000D+00
     13  0.000000D+00 -0.361274D-01  0.368096D-01  0.000000D+00 -0.791066D-01
     14  0.000000D+00 -0.170414D-01 -0.772944D-01  0.000000D+00  0.310134D-01
     15  0.108445D-01  0.000000D+00  0.000000D+00 -0.782267D-02  0.000000D+00
     16  0.525942D-01 -0.543189D-01  0.144277D-01 -0.496104D-01 -0.311092D-01
     17  0.119963D-01  0.144256D-01 -0.267791D-01  0.212323D-01  0.175642D-01
     18 -0.512170D-01  0.943137D-03 -0.403879D-03 -0.512374D-01 -0.519558D-03
     19 -0.525948D-01 -0.543211D-01  0.144283D-01  0.496112D-01 -0.311092D-01
     20 -0.119968D-01  0.144262D-01 -0.267800D-01 -0.212330D-01  0.175643D-01
     21 -0.512174D-01 -0.943079D-03  0.403742D-03 -0.512379D-01  0.519597D-03
               11            12            13            14            15 
     11  0.214459D+00
     12  0.000000D+00  0.964879D-01
     13 -0.228303D-01  0.000000D+00  0.188694D+00
     14 -0.342229D-01  0.000000D+00  0.419415D-01  0.200009D+00
     15  0.000000D+00 -0.781418D-02  0.000000D+00  0.000000D+00  0.964461D-01
     16  0.175656D-01  0.276762D-01 -0.379029D-01 -0.197667D-01 -0.355374D-01
     17 -0.500513D-01 -0.463594D-01 -0.197728D-01 -0.432109D-01 -0.406271D-01
     18  0.865531D-03 -0.512732D-01  0.671448D-03  0.771107D-03 -0.512460D-01
     19  0.175655D-01 -0.276761D-01 -0.379026D-01 -0.197662D-01  0.355372D-01
     20 -0.500508D-01  0.463595D-01 -0.197727D-01 -0.432099D-01  0.406269D-01
     21 -0.865373D-03 -0.512735D-01 -0.671417D-03 -0.771093D-03 -0.512460D-01
               16            17            18            19            20 
     16  0.220144D+00
     17 -0.198683D-04  0.220151D+00
     18  0.256219D-04  0.337578D-04  0.328949D+00
     19 -0.174097D-01 -0.451421D-05 -0.715006D-05  0.220146D+00
     20 -0.451420D-05 -0.174082D-01  0.000000D+00 -0.209891D-04  0.220146D+00
     21  0.727546D-05  0.000000D+00 -0.727637D-01 -0.260656D-04 -0.344920D-04
               21 
     21  0.328948D+00
 Leave Link  716 at Mon Feb 24 13:29:22 2025, MaxMem=  2097152000 cpu:               0.1 elap:               0.0
 (Enter /nvme/h/buildsets/eb_nepheli/software/Gaussian/16.C.01-AVX2/g16/l103.exe)

 GradGradGradGradGradGradGradGradGradGradGradGradGradGradGradGradGradGrad
 Berny optimization.
 Search for a local minimum.
 Step number   1 out of a maximum of    2
 All quantities printed in internal units (Hartrees-Bohrs-Radians)
 Second derivative matrix not updated -- first step.
 ITU=  0
     Eigenvalues ---    0.11574   0.11581   0.19267   0.19272   0.20871
     Eigenvalues ---    0.20877   0.21667   0.30120   0.30125   0.31956
     Eigenvalues ---    0.31963   0.34485   0.34497   0.35866   0.40177
 Angle between quadratic step and forces=  13.90 degrees.
 Linear search not attempted -- first point.
 B after Tr=    -0.000000   -0.000000    0.000000
         Rot=    1.000000   -0.000000   -0.000000   -0.000000 Ang=   0.00 deg.
 Variable       Old X    -DE/DX   Delta X   Delta X   Delta X     New X
                                 (Linear)    (Quad)   (Total)
    X1       -0.40787  -0.00001   0.00000   0.00003   0.00003  -0.40784
    Y1       -4.52928  -0.00003   0.00000  -0.00015  -0.00015  -4.52943
    Z1       -0.00006   0.00000   0.00000   0.00000   0.00000  -0.00005
    X2       -4.43465   0.00007   0.00000   0.00018   0.00018  -4.43447
    Y2       -1.01031  -0.00003   0.00000  -0.00010  -0.00010  -1.01041
    Z2        0.00003  -0.00000   0.00000  -0.00000  -0.00000   0.00002
    X3        4.18013   0.00008   0.00000   0.00024   0.00024   4.18037
    Y3       -1.78870  -0.00000   0.00000   0.00000   0.00000  -1.78870
    Z3        0.00005  -0.00000   0.00000  -0.00000  -0.00000   0.00004
    X4       -2.33066   0.00001   0.00000   0.00008   0.00008  -2.33058
    Y4        3.90404   0.00007   0.00000   0.00030   0.00030   3.90434
    Z4       -0.00001   0.00000   0.00000   0.00000   0.00000  -0.00001
    X5        2.99360  -0.00001   0.00000  -0.00002  -0.00002   2.99358
    Y5        3.42288  -0.00003   0.00000  -0.00011  -0.00011   3.42277
    Z5       -0.00002   0.00000   0.00000   0.00000   0.00000  -0.00002
    X6       -0.00027  -0.00007   0.00000  -0.00025  -0.00025  -0.00053
    Y6        0.00068   0.00001   0.00000   0.00003   0.00003   0.00071
    Z6       -2.92120   0.00015   0.00000   0.00038   0.00038  -2.92082
    X7       -0.00028  -0.00007   0.00000  -0.00025  -0.00025  -0.00053
    Y7        0.00070   0.00001   0.00000   0.00003   0.00003   0.00072
    Z7        2.92121  -0.00015   0.00000  -0.00038  -0.00038   2.92083
         Item               Value     Threshold  Converged?
 Maximum Force            0.000152     0.000450     YES
 RMS     Force            0.000060     0.000300     YES
 Maximum Displacement     0.000378     0.001800     YES
 RMS     Displacement     0.000176     0.001200     YES
 Predicted change in Energy=-1.069144D-07
 Optimization completed.
    -- Stationary point found.
 GradGradGradGradGradGradGradGradGradGradGradGradGradGradGradGradGradGrad

 Leave Link  103 at Mon Feb 24 13:29:22 2025, MaxMem=  2097152000 cpu:               0.2 elap:               0.1
 (Enter /nvme/h/buildsets/eb_nepheli/software/Gaussian/16.C.01-AVX2/g16/l9999.exe)
 Unable to Open any file for archive entry.
 1\1\GINC-NE04\Force\UwB97XD\def2SVP\Ag7(2)\NPATSALIDIS\24-Feb-2025\0\\
 #p wb97xd/def2SVP scf(xqc) scfcyc=999 force\\Template file\\0,2\Ag,-0.
 215838,-2.396791,-0.00003\Ag,-2.346714,-0.534634,0.000014\Ag,2.212028,
 -0.946538,0.000025\Ag,-1.233332,2.065928,-0.000006\Ag,1.584146,1.81130
 8,-0.000009\Ag,-0.000144,0.000358,-1.545832\Ag,-0.000146,0.000369,1.54
 5837\\Version=ES64L-G16RevC.01\State=2-A\HF=-1029.175066\S2=0.754774\S
 2-1=0.\S2A=0.750008\RMSD=2.398e-09\RMSF=5.964e-05\Dipole=-0.0004364,0.
 0000467,0.0000018\Quadrupole=2.7519548,2.7483276,-5.5002824,0.002036,0
 .0000076,-0.0000171\PG=C01 [X(Ag7)]\\@
 The archive entry for this job was punched.


 EVERYTHING'S GOT A MORAL, IF ONLY YOU CAN FIND IT.

                                    -- LEWIS CARROL, ALICE IN WONDERLAND
 Job cpu time:       0 days  0 hours  4 minutes 26.9 seconds.
 Elapsed time:       0 days  0 hours  1 minutes 11.8 seconds.
 File lengths (MBytes):  RWF=     41 Int=      0 D2E=      0 Chk=      5 Scr=      1
 Normal termination of Gaussian 16 at Mon Feb 24 13:29:22 2025.
