 Entering Gaussian System, Link 0=g16
 Initial command:
 /nvme/h/buildsets/eb_nepheli/software/Gaussian/16.C.01-AVX2/g16/l1.exe "/onyx/data/simea/nikolas/postDoc/Active-Learning-Package/Ag7CO2/init_data/Ag7CO2/Gau-56584.inp" -scrdir="/onyx/data/simea/nikolas/postDoc/Active-Learning-Package/Ag7CO2/init_data/Ag7CO2/"
 Entering Link 1 = /nvme/h/buildsets/eb_nepheli/software/Gaussian/16.C.01-AVX2/g16/l1.exe PID=     56585.
  
 Copyright (c) 1988-2019, Gaussian, Inc.  All Rights Reserved.
  
 This is part of the Gaussian(R) 16 program.  It is based on
 the Gaussian(R) 09 system (copyright 2009, Gaussian, Inc.),
 the Gaussian(R) 03 system (copyright 2003, Gaussian, Inc.),
 the Gaussian(R) 98 system (copyright 1998, Gaussian, Inc.),
 the Gaussian(R) 94 system (copyright 1995, Gaussian, Inc.),
 the Gaussian 92(TM) system (copyright 1992, Gaussian, Inc.),
 the Gaussian 90(TM) system (copyright 1990, Gaussian, Inc.),
 the Gaussian 88(TM) system (copyright 1988, Gaussian, Inc.),
 the Gaussian 86(TM) system (copyright 1986, Carnegie Mellon
 University), and the Gaussian 82(TM) system (copyright 1983,
 Carnegie Mellon University). Gaussian is a federally registered
 trademark of Gaussian, Inc.
  
 This software contains proprietary and confidential information,
 including trade secrets, belonging to Gaussian, Inc.
  
 This software is provided under written license and may be
 used, copied, transmitted, or stored only in accord with that
 written license.
  
 The following legend is applicable only to US Government
 contracts under FAR:
  
                    RESTRICTED RIGHTS LEGEND
  
 Use, reproduction and disclosure by the US Government is
 subject to restrictions as set forth in subparagraphs (a)
 and (c) of the Commercial Computer Software - Restricted
 Rights clause in FAR 52.227-19.
  
 Gaussian, Inc.
 340 Quinnipiac St., Bldg. 40, Wallingford CT 06492
  
  
 ---------------------------------------------------------------
 Warning -- This program may not be used in any manner that
 competes with the business of Gaussian, Inc. or will provide
 assistance to any competitor of Gaussian, Inc.  The licensee
 of this program is prohibited from giving any competitor of
 Gaussian, Inc. access to this program.  By using this program,
 the user acknowledges that Gaussian, Inc. is engaged in the
 business of creating and licensing software in the field of
 computational chemistry and represents and warrants to the
 licensee that it is not a competitor of Gaussian, Inc. and that
 it will not use this program in any manner prohibited above.
 ---------------------------------------------------------------
  

 Cite this work as:
 Gaussian 16, Revision C.01,
 M. J. Frisch, G. W. Trucks, H. B. Schlegel, G. E. Scuseria, 
 M. A. Robb, J. R. Cheeseman, G. Scalmani, V. Barone, 
 G. A. Petersson, H. Nakatsuji, X. Li, M. Caricato, A. V. Marenich, 
 J. Bloino, B. G. Janesko, R. Gomperts, B. Mennucci, H. P. Hratchian, 
 J. V. Ortiz, A. F. Izmaylov, J. L. Sonnenberg, D. Williams-Young, 
 F. Ding, F. Lipparini, F. Egidi, J. Goings, B. Peng, A. Petrone, 
 T. Henderson, D. Ranasinghe, V. G. Zakrzewski, J. Gao, N. Rega, 
 G. Zheng, W. Liang, M. Hada, M. Ehara, K. Toyota, R. Fukuda, 
 J. Hasegawa, M. Ishida, T. Nakajima, Y. Honda, O. Kitao, H. Nakai, 
 T. Vreven, K. Throssell, J. A. Montgomery, Jr., J. E. Peralta, 
 F. Ogliaro, M. J. Bearpark, J. J. Heyd, E. N. Brothers, K. N. Kudin, 
 V. N. Staroverov, T. A. Keith, R. Kobayashi, J. Normand, 
 K. Raghavachari, A. P. Rendell, J. C. Burant, S. S. Iyengar, 
 J. Tomasi, M. Cossi, J. M. Millam, M. Klene, C. Adamo, R. Cammi, 
 J. W. Ochterski, R. L. Martin, K. Morokuma, O. Farkas, 
 J. B. Foresman, and D. J. Fox, Gaussian, Inc., Wallingford CT, 2019.
 
 ******************************************
 Gaussian 16:  ES64L-G16RevC.01  3-Jul-2019
                24-Feb-2025 
 ******************************************
 %nprocshared=4
 Will use up to    4 processors via shared memory.
 %mem=16000MB
 -------------------------------------------
 #p wb97xd/def2SVP scf(xqc) scfcyc=999 force
 -------------------------------------------
 1/10=7,30=1,38=1/1,3;
 2/12=2,17=6,18=5,40=1/2;
 3/5=43,7=101,11=2,25=1,30=1,71=1,74=-58/1,2,3;
 4//1;
 5/5=2,7=999,8=3,13=1,38=5/2,8;
 6/7=2,8=2,9=2,10=2,28=1/1;
 7/29=1/1,2,3,16;
 1/10=7,30=1/3;
 99//99;
 Leave Link    1 at Mon Feb 24 14:29:45 2025, MaxMem=  2097152000 cpu:               0.2 elap:               0.1
 (Enter /nvme/h/buildsets/eb_nepheli/software/Gaussian/16.C.01-AVX2/g16/l101.exe)
 -------------
 Template file
 -------------
 Symbolic Z-matrix:
 Charge =  0 Multiplicity = 2
 Ag                    0.0799   -0.02495   0.0763 
 Ag                    0.07835   0.00956   2.91201 
 Ag                    2.76368   0.00859   3.78174 
 Ag                    2.01085  -1.57684   1.5244 
 Ag                    2.0325    1.51077   1.46086 
 Ag                    4.42533  -0.02643   1.48421 
 Ag                    2.76507  -0.12741  -0.80117 
 C                     3.00809   3.2671   -1.60173 
 O                     2.73726   4.0247   -0.76916 
 O                     3.28027   2.51058  -2.43841 
 
 ITRead=  0  0  0  0  0  0  0  0  0  0
 MicOpt= -1 -1 -1 -1 -1 -1 -1 -1 -1 -1
 NAtoms=     10 NQM=       10 NQMF=       0 NMMI=      0 NMMIF=      0
                NMic=       0 NMicF=      0.
                    Isotopes and Nuclear Properties:
 (Nuclear quadrupole moments (NQMom) in fm**2, nuclear magnetic moments (NMagM)
  in nuclear magnetons)

  Atom         1           2           3           4           5           6           7           8           9          10
 IAtWgt=         107         107         107         107         107         107         107          12          16          16
 AtmWgt= 106.9050900 106.9050900 106.9050900 106.9050900 106.9050900 106.9050900 106.9050900  12.0000000  15.9949146  15.9949146
 NucSpn=           1           1           1           1           1           1           1           0           0           0
 AtZEff=  -0.0000000  -0.0000000  -0.0000000  -0.0000000  -0.0000000  -0.0000000  -0.0000000  -0.0000000  -0.0000000  -0.0000000
 NQMom=    0.0000000   0.0000000   0.0000000   0.0000000   0.0000000   0.0000000   0.0000000   0.0000000   0.0000000   0.0000000
 NMagM=   -0.1135700  -0.1135700  -0.1135700  -0.1135700  -0.1135700  -0.1135700  -0.1135700   0.0000000   0.0000000   0.0000000
 AtZNuc=  47.0000000  47.0000000  47.0000000  47.0000000  47.0000000  47.0000000  47.0000000   6.0000000   8.0000000   8.0000000
 Leave Link  101 at Mon Feb 24 14:29:45 2025, MaxMem=  2097152000 cpu:               0.1 elap:               0.1
 (Enter /nvme/h/buildsets/eb_nepheli/software/Gaussian/16.C.01-AVX2/g16/l103.exe)

 GradGradGradGradGradGradGradGradGradGradGradGradGradGradGradGradGradGrad
 Berny optimization.
 Initialization pass.
 Trust Radius=3.00D-01 FncErr=1.00D-07 GrdErr=1.00D-07 EigMax=2.50D+02 EigMin=1.00D-04
 Number of steps in this run=      2 maximum allowed number of steps=      2.
 GradGradGradGradGradGradGradGradGradGradGradGradGradGradGradGradGradGrad

 Leave Link  103 at Mon Feb 24 14:29:45 2025, MaxMem=  2097152000 cpu:               0.0 elap:               0.0
 (Enter /nvme/h/buildsets/eb_nepheli/software/Gaussian/16.C.01-AVX2/g16/l202.exe)
                          Input orientation:                          
 ---------------------------------------------------------------------
 Center     Atomic      Atomic             Coordinates (Angstroms)
 Number     Number       Type             X           Y           Z
 ---------------------------------------------------------------------
      1         47           0        0.079903   -0.024954    0.076295
      2         47           0        0.078350    0.009556    2.912006
      3         47           0        2.763684    0.008591    3.781741
      4         47           0        2.010854   -1.576844    1.524404
      5         47           0        2.032502    1.510768    1.460855
      6         47           0        4.425328   -0.026431    1.484213
      7         47           0        2.765066   -0.127412   -0.801169
      8          6           0        3.008095    3.267105   -1.601729
      9          8           0        2.737259    4.024695   -0.769155
     10          8           0        3.280268    2.510576   -2.438413
 ---------------------------------------------------------------------
                    Distance matrix (angstroms):
                    1          2          3          4          5
     1  Ag   0.000000
     2  Ag   2.835921   0.000000
     3  Ag   4.575384   2.822669   0.000000
     4  Ag   2.869487   2.859489   2.859358   0.000000
     5  Ag   2.843957   2.859753   2.859663   3.088342   0.000000
     6  Ag   4.567817   4.575599   2.835652   2.869683   2.844142
     7  Ag   2.826755   4.585289   4.584928   2.842179   2.887393
     8  C    4.714629   6.290376   6.297571   5.850730   3.662775
     9  O    4.916908   6.061525   6.069633   6.096336   3.433578
    10  O    4.795311   6.718211   6.724366   5.832867   4.214360
                    6          7          8          9         10
     6  Ag   0.000000
     7  Ag   2.826595   0.000000
     8  C    4.730641   3.496099   0.000000
     9  O    4.933444   4.152324   1.157789   0.000000
    10  O    4.809840   3.147218   1.160368   2.318154   0.000000
 Stoichiometry    CAg7O2(2)
 Framework group  C1[X(CAg7O2)]
 Deg. of freedom    24
 Full point group                 C1      NOp   1
 Largest Abelian subgroup         C1      NOp   1
 Largest concise Abelian subgroup C1      NOp   1
                         Standard orientation:                         
 ---------------------------------------------------------------------
 Center     Atomic      Atomic             Coordinates (Angstroms)
 Number     Number       Type             X           Y           Z
 ---------------------------------------------------------------------
      1         47           0       -0.449612   -2.279939   -0.383208
      2         47           0        2.069693   -1.421027    0.595476
      3         47           0        2.082095    1.401607    0.602092
      4         47           0        0.836323    0.000922   -1.557089
      5         47           0       -0.306851   -0.000822    1.311884
      6         47           0       -0.429121    2.287819   -0.372252
      7         47           0       -1.961067    0.012488   -1.054638
      8          6           0       -3.932421   -0.002247    1.832619
      9          8           0       -3.377320   -0.008449    2.848640
     10          8           0       -4.491941    0.003980    0.816079
 ---------------------------------------------------------------------
 Rotational constants (GHZ):           0.2114819           0.1685412           0.1369153
 Leave Link  202 at Mon Feb 24 14:29:46 2025, MaxMem=  2097152000 cpu:               0.0 elap:               0.0
 (Enter /nvme/h/buildsets/eb_nepheli/software/Gaussian/16.C.01-AVX2/g16/l301.exe)
 Standard basis: def2SVP (5D, 7F)
 Ernie: Thresh=  0.10000D-02 Tol=  0.10000D-05 Strict=F.
 There are   297 symmetry adapted cartesian basis functions of A   symmetry.
 There are   259 symmetry adapted basis functions of A   symmetry.
   259 basis functions,   530 primitive gaussians,   297 cartesian basis functions
    78 alpha electrons       77 beta electrons
       nuclear repulsion energy      1654.3889576720 Hartrees.
 IExCor= 4639 DFT=T Ex+Corr=wB97XD ExCW=0 ScaHFX=  1.000000
 ScaDFX=  1.000000  1.000000  1.000000  1.000000 ScalE2=  1.000000  1.000000
 IRadAn=      5 IRanWt=     -1 IRanGd=            0 ICorTp=0 IEmpDi=121
 HFx  wShort=  0.000000 wLong=  0.200000 cFull=  0.222036 cShort=  0.000000 cLong=  0.777964
 DFx  wShort=  0.000000 wLong=  0.200000 cFull=  0.000000 cShort=  0.000000 cLong=  1.000000
 NAtoms=   10 NActive=   10 NUniq=   10 SFac= 1.00D+00 NAtFMM=   60 NAOKFM=F Big=F
 Integral buffers will be    131072 words long.
 Raffenetti 2 integral format.
 Two-electron integral symmetry is turned on.
 R6Disp:  Grimme-D2 Dispersion energy=       -0.0171643604 Hartrees.
 Nuclear repulsion after empirical dispersion term =     1654.3717933116 Hartrees.
 Leave Link  301 at Mon Feb 24 14:29:46 2025, MaxMem=  2097152000 cpu:               0.1 elap:               0.0
 (Enter /nvme/h/buildsets/eb_nepheli/software/Gaussian/16.C.01-AVX2/g16/l302.exe)
 NPDir=0 NMtPBC=     1 NCelOv=     1 NCel=       1 NClECP=     1 NCelD=      1
         NCelK=      1 NCelE2=     1 NClLst=     1 CellRange=     0.0.
 One-electron integrals computed using PRISM.
 One-electron integral symmetry used in STVInt
   1 Symmetry operations used in ECPInt.
 ECPInt:  NShTT=    4560 NPrTT=   14509 LenC2=    4376 LenP2D=   11343.
 LDataN:  DoStor=T MaxTD1= 7 Len=  274
 NBasis=   259 RedAO= T EigKep=  3.63D-04  NBF=   259
 NBsUse=   259 1.00D-06 EigRej= -1.00D+00 NBFU=   259
 Precomputing XC quadrature grid using
 IXCGrd= 4 IRadAn=           5 IRanWt=          -1 IRanGd=           0 AccXCQ= 0.00D+00.
 Defaulting to unpruned grid for atomic number  47.
 Defaulting to unpruned grid for atomic number  47.
 Defaulting to unpruned grid for atomic number  47.
 Generated NRdTot=       0 NPtTot=           0 NUsed=           0 NTot=          32
 NSgBfM=   295   295   295   295   295 MxSgAt=    10 MxSgA2=    10.
 Leave Link  302 at Mon Feb 24 14:29:47 2025, MaxMem=  2097152000 cpu:               4.1 elap:               1.1
 (Enter /nvme/h/buildsets/eb_nepheli/software/Gaussian/16.C.01-AVX2/g16/l303.exe)
 DipDrv:  MaxL=1.
 Leave Link  303 at Mon Feb 24 14:29:47 2025, MaxMem=  2097152000 cpu:               0.1 elap:               0.0
 (Enter /nvme/h/buildsets/eb_nepheli/software/Gaussian/16.C.01-AVX2/g16/l401.exe)
 ExpMin= 3.75D-02 ExpMax= 2.27D+03 ExpMxC= 3.41D+02 IAcc=3 IRadAn=         5 AccDes= 0.00D+00
 Harris functional with IExCor= 4639 and IRadAn=       5 diagonalized for initial guess.
 HarFok:  IExCor= 4639 AccDes= 0.00D+00 IRadAn=         5 IDoV= 1 UseB2=F ITyADJ=14
 ICtDFT=  3500011 ScaDFX=  1.000000  1.000000  1.000000  1.000000
 Defaulting to unpruned grid for atomic number  47.
 FoFCou: FMM=F IPFlag=           0 FMFlag=      100000 FMFlg1=           0
         NFxFlg=           0 DoJE=T BraDBF=F KetDBF=T FulRan=T
         wScrn=  0.000000 ICntrl=       500 IOpCl=  0 I1Cent=   200000004 NGrid=           0
         NMat0=    1 NMatS0=      1 NMatT0=    0 NMatD0=    1 NMtDS0=    0 NMtDT0=    0
 Petite list used in FoFCou.
 Harris En= -1183.37542740590    
 JPrj=0 DoOrth=F DoCkMO=F.
 Initial guess <Sx>= 0.0000 <Sy>= 0.0000 <Sz>= 0.5000 <S**2>= 0.7500 S= 0.5000
 Leave Link  401 at Mon Feb 24 14:29:49 2025, MaxMem=  2097152000 cpu:               5.0 elap:               1.3
 (Enter /nvme/h/buildsets/eb_nepheli/software/Gaussian/16.C.01-AVX2/g16/l502.exe)
 Integral symmetry usage will be decided dynamically.
 UHF open shell SCF:
 Using DIIS extrapolation, IDIIS=  1040.
 NGot=  2097152000 LenX=  2096970918 LenY=  2096882268
 Requested convergence on RMS density matrix=1.00D-08 within 128 cycles.
 Requested convergence on MAX density matrix=1.00D-06.
 Requested convergence on             energy=1.00D-06.
 No special actions if energy rises.
 Fock matrices will be formed incrementally for  20 cycles.

 Cycle   1  Pass 1  IDiag  1:
 FoFJK:  IHMeth= 1 ICntrl=       0 DoSepK=T KAlg= 0 I1Cent=           0 FoldK=F
 IRaf=         1 NMat=       1 IRICut=       1 DoRegI=T DoRafI=F ISym2E= 0 IDoP0=0 IntGTp=1.
 FoFCou: FMM=F IPFlag=           0 FMFlag=      100000 FMFlg1=           0
         NFxFlg=           0 DoJE=T BraDBF=F KetDBF=F FulRan=T
         wScrn=  0.000000 ICntrl=       500 IOpCl=  0 I1Cent=           0 NGrid=           0
         NMat0=    1 NMatS0=      1 NMatT0=    0 NMatD0=    1 NMtDS0=    0 NMtDT0=    0
 Symmetry not used in FoFCou.
 Defaulting to unpruned grid for atomic number  47.
 Defaulting to unpruned grid for atomic number  47.
 Defaulting to unpruned grid for atomic number  47.
 Defaulting to unpruned grid for atomic number  47.
 E= -1206.95572217740    
 DIIS: error= 2.18D-01 at cycle   1 NSaved=   1.
 NSaved= 1 IEnMin= 1 EnMin= -1206.95572217740     IErMin= 1 ErrMin= 2.18D-01
 ErrMax= 2.18D-01  0.00D+00 EMaxC= 1.00D-01 BMatC= 4.91D+01 BMatP= 4.91D+01
 IDIUse=3 WtCom= 0.00D+00 WtEn= 1.00D+00
 Coeff-Com:  0.100D+01
 Coeff-En:   0.100D+01
 Coeff:      0.100D+01
 Gap=    -0.170 Goal=   None    Shift=    0.000
 Gap=     0.743 Goal=   None    Shift=    0.000
 GapD=   -0.170 DampG=0.250 DampE=0.125 DampFc=0.1250 IDamp=-1.
 Damping current iteration by 1.25D-01
 RMSDP=4.39D-02 MaxDP=2.11D+00              OVMax= 9.84D-01

 Cycle   2  Pass 1  IDiag  1:
 RMSU=  5.47D-03    CP:  9.87D-01
 E= -1209.35575002214     Delta-E=       -2.400027844737 Rises=F Damp=T
 DIIS: error= 1.61D-01 at cycle   2 NSaved=   2.
 NSaved= 2 IEnMin= 2 EnMin= -1209.35575002214     IErMin= 2 ErrMin= 1.61D-01
 ErrMax= 1.61D-01  0.00D+00 EMaxC= 1.00D-01 BMatC= 2.63D+01 BMatP= 4.91D+01
 IDIUse=3 WtCom= 0.00D+00 WtEn= 1.00D+00
 Coeff-Com: -0.253D+01 0.353D+01
 Coeff-En:   0.000D+00 0.100D+01
 Coeff:      0.000D+00 0.100D+01
 Gap=     0.020 Goal=   None    Shift=    0.000
 Gap=     0.038 Goal=   None    Shift=    0.000
 RMSDP=2.95D-02 MaxDP=1.29D+00 DE=-2.40D+00 OVMax= 9.96D-01

 Cycle   3  Pass 1  IDiag  1:
 RMSU=  2.27D-02    CP:  7.65D-01  3.00D+00
 E= -1213.68556998874     Delta-E=       -4.329819966596 Rises=F Damp=F
 DIIS: error= 9.90D-02 at cycle   3 NSaved=   3.
 NSaved= 3 IEnMin= 3 EnMin= -1213.68556998874     IErMin= 3 ErrMin= 9.90D-02
 ErrMax= 9.90D-02  0.00D+00 EMaxC= 1.00D-01 BMatC= 1.57D+01 BMatP= 2.63D+01
 IDIUse=3 WtCom= 1.03D-02 WtEn= 9.90D-01
 EnCoef did   100 forward-backward iterations
 Coeff-Com: -0.129D+01 0.199D+01 0.299D+00
 Coeff-En:   0.256D+00 0.126D-01 0.731D+00
 Coeff:      0.240D+00 0.329D-01 0.727D+00
 Gap=     0.164 Goal=   None    Shift=    0.000
 Gap=     0.468 Goal=   None    Shift=    0.000
 RMSDP=2.37D-02 MaxDP=1.51D+00 DE=-4.33D+00 OVMax= 4.29D-01

 Cycle   4  Pass 1  IDiag  1:
 RMSU=  1.50D-02    CP:  6.49D-01  1.48D+00  5.04D-01
 E= -1217.32187074117     Delta-E=       -3.636300752435 Rises=F Damp=F
 DIIS: error= 3.46D-02 at cycle   4 NSaved=   4.
 NSaved= 4 IEnMin= 4 EnMin= -1217.32187074117     IErMin= 4 ErrMin= 3.46D-02
 ErrMax= 3.46D-02  0.00D+00 EMaxC= 1.00D-01 BMatC= 1.51D+00 BMatP= 1.57D+01
 IDIUse=3 WtCom= 6.54D-01 WtEn= 3.46D-01
 Coeff-Com: -0.526D+00 0.769D+00 0.186D+00 0.570D+00
 Coeff-En:   0.000D+00 0.000D+00 0.000D+00 0.100D+01
 Coeff:     -0.344D+00 0.503D+00 0.121D+00 0.719D+00
 Gap=     0.197 Goal=   None    Shift=    0.000
 Gap=     0.191 Goal=   None    Shift=    0.000
 RMSDP=4.53D-03 MaxDP=1.54D-01 DE=-3.64D+00 OVMax= 1.42D-01

 Cycle   5  Pass 1  IDiag  1:
 RMSU=  3.97D-03    CP:  6.23D-01  1.73D+00  5.59D-01  1.03D+00
 E= -1217.42843819819     Delta-E=       -0.106567457021 Rises=F Damp=F
 DIIS: error= 2.22D-02 at cycle   5 NSaved=   5.
 NSaved= 5 IEnMin= 5 EnMin= -1217.42843819819     IErMin= 5 ErrMin= 2.22D-02
 ErrMax= 2.22D-02  0.00D+00 EMaxC= 1.00D-01 BMatC= 6.70D-01 BMatP= 1.51D+00
 IDIUse=3 WtCom= 7.78D-01 WtEn= 2.22D-01
 Coeff-Com: -0.318D+00 0.428D+00-0.734D-02 0.370D+00 0.528D+00
 Coeff-En:   0.000D+00 0.000D+00 0.000D+00 0.350D+00 0.650D+00
 Coeff:     -0.248D+00 0.333D+00-0.571D-02 0.365D+00 0.555D+00
 Gap=     0.171 Goal=   None    Shift=    0.000
 Gap=     0.183 Goal=   None    Shift=    0.000
 RMSDP=2.48D-03 MaxDP=1.51D-01 DE=-1.07D-01 OVMax= 7.77D-02

 Cycle   6  Pass 1  IDiag  1:
 RMSU=  1.85D-03    CP:  6.26D-01  1.53D+00  5.20D-01  1.07D+00  8.42D-01
 E= -1217.55546017122     Delta-E=       -0.127021973027 Rises=F Damp=F
 DIIS: error= 4.03D-03 at cycle   6 NSaved=   6.
 NSaved= 6 IEnMin= 6 EnMin= -1217.55546017122     IErMin= 6 ErrMin= 4.03D-03
 ErrMax= 4.03D-03  0.00D+00 EMaxC= 1.00D-01 BMatC= 2.46D-02 BMatP= 6.70D-01
 IDIUse=3 WtCom= 9.60D-01 WtEn= 4.03D-02
 Coeff-Com: -0.126D+00 0.172D+00-0.371D-01 0.464D-01 0.166D+00 0.779D+00
 Coeff-En:   0.000D+00 0.000D+00 0.000D+00 0.000D+00 0.000D+00 0.100D+01
 Coeff:     -0.121D+00 0.165D+00-0.357D-01 0.445D-01 0.159D+00 0.788D+00
 Gap=     0.176 Goal=   None    Shift=    0.000
 Gap=     0.184 Goal=   None    Shift=    0.000
 RMSDP=9.16D-04 MaxDP=7.26D-02 DE=-1.27D-01 OVMax= 1.53D-02

 Cycle   7  Pass 1  IDiag  1:
 RMSU=  5.00D-04    CP:  6.23D-01  1.50D+00  5.12D-01  1.08D+00  9.37D-01
                    CP:  1.32D+00
 E= -1217.56017508470     Delta-E=       -0.004714913484 Rises=F Damp=F
 DIIS: error= 3.43D-03 at cycle   7 NSaved=   7.
 NSaved= 7 IEnMin= 7 EnMin= -1217.56017508470     IErMin= 7 ErrMin= 3.43D-03
 ErrMax= 3.43D-03  0.00D+00 EMaxC= 1.00D-01 BMatC= 1.02D-02 BMatP= 2.46D-02
 IDIUse=3 WtCom= 9.66D-01 WtEn= 3.43D-02
 Coeff-Com: -0.555D-01 0.782D-01-0.262D-01-0.398D-01-0.218D-01 0.386D+00
 Coeff-Com:  0.679D+00
 Coeff-En:   0.000D+00 0.000D+00 0.000D+00 0.000D+00 0.000D+00 0.000D+00
 Coeff-En:   0.100D+01
 Coeff:     -0.536D-01 0.755D-01-0.253D-01-0.384D-01-0.211D-01 0.373D+00
 Coeff:      0.690D+00
 Gap=     0.178 Goal=   None    Shift=    0.000
 Gap=     0.187 Goal=   None    Shift=    0.000
 RMSDP=4.74D-04 MaxDP=4.10D-02 DE=-4.71D-03 OVMax= 1.07D-02

 Cycle   8  Pass 1  IDiag  1:
 RMSU=  1.94D-04    CP:  6.22D-01  1.48D+00  5.08D-01  1.08D+00  9.69D-01
                    CP:  1.50D+00  1.37D+00
 E= -1217.56207933361     Delta-E=       -0.001904248901 Rises=F Damp=F
 DIIS: error= 1.54D-03 at cycle   8 NSaved=   8.
 NSaved= 8 IEnMin= 8 EnMin= -1217.56207933361     IErMin= 8 ErrMin= 1.54D-03
 ErrMax= 1.54D-03  0.00D+00 EMaxC= 1.00D-01 BMatC= 2.75D-03 BMatP= 1.02D-02
 IDIUse=3 WtCom= 9.85D-01 WtEn= 1.54D-02
 Coeff-Com: -0.112D-01 0.170D-01-0.924D-02-0.254D-01-0.553D-01-0.353D-01
 Coeff-Com:  0.374D+00 0.745D+00
 Coeff-En:   0.000D+00 0.000D+00 0.000D+00 0.000D+00 0.000D+00 0.000D+00
 Coeff-En:   0.000D+00 0.100D+01
 Coeff:     -0.110D-01 0.167D-01-0.910D-02-0.250D-01-0.545D-01-0.347D-01
 Coeff:      0.369D+00 0.749D+00
 Gap=     0.178 Goal=   None    Shift=    0.000
 Gap=     0.189 Goal=   None    Shift=    0.000
 RMSDP=2.66D-04 MaxDP=2.37D-02 DE=-1.90D-03 OVMax= 7.60D-03

 Cycle   9  Pass 1  IDiag  1:
 RMSU=  7.88D-05    CP:  6.21D-01  1.47D+00  5.05D-01  1.08D+00  9.78D-01
                    CP:  1.60D+00  1.66D+00  1.19D+00
 E= -1217.56271761487     Delta-E=       -0.000638281264 Rises=F Damp=F
 DIIS: error= 3.63D-04 at cycle   9 NSaved=   9.
 NSaved= 9 IEnMin= 9 EnMin= -1217.56271761487     IErMin= 9 ErrMin= 3.63D-04
 ErrMax= 3.63D-04  0.00D+00 EMaxC= 1.00D-01 BMatC= 2.61D-04 BMatP= 2.75D-03
 IDIUse=3 WtCom= 9.96D-01 WtEn= 3.63D-03
 Coeff-Com:  0.477D-02-0.668D-02-0.381D-03 0.623D-02-0.657D-02-0.862D-01
 Coeff-Com: -0.254D-01 0.264D+00 0.850D+00
 Coeff-En:   0.000D+00 0.000D+00 0.000D+00 0.000D+00 0.000D+00 0.000D+00
 Coeff-En:   0.000D+00 0.000D+00 0.100D+01
 Coeff:      0.476D-02-0.666D-02-0.380D-03 0.621D-02-0.654D-02-0.859D-01
 Coeff:     -0.253D-01 0.263D+00 0.851D+00
 Gap=     0.178 Goal=   None    Shift=    0.000
 Gap=     0.190 Goal=   None    Shift=    0.000
 RMSDP=8.98D-05 MaxDP=3.23D-03 DE=-6.38D-04 OVMax= 4.97D-03

 Cycle  10  Pass 1  IDiag  1:
 RMSU=  5.67D-05    CP:  6.21D-01  1.47D+00  5.04D-01  1.08D+00  9.75D-01
                    CP:  1.62D+00  1.73D+00  1.31D+00  1.30D+00
 E= -1217.56279192438     Delta-E=       -0.000074309515 Rises=F Damp=F
 DIIS: error= 1.27D-04 at cycle  10 NSaved=  10.
 NSaved=10 IEnMin=10 EnMin= -1217.56279192438     IErMin=10 ErrMin= 1.27D-04
 ErrMax= 1.27D-04  0.00D+00 EMaxC= 1.00D-01 BMatC= 2.59D-05 BMatP= 2.61D-04
 IDIUse=3 WtCom= 9.99D-01 WtEn= 1.27D-03
 Coeff-Com:  0.171D-02-0.263D-02 0.563D-03 0.352D-02 0.448D-02-0.868D-02
 Coeff-Com: -0.302D-01 0.450D-02 0.240D+00 0.787D+00
 Coeff-En:   0.000D+00 0.000D+00 0.000D+00 0.000D+00 0.000D+00 0.000D+00
 Coeff-En:   0.000D+00 0.000D+00 0.000D+00 0.100D+01
 Coeff:      0.171D-02-0.263D-02 0.562D-03 0.351D-02 0.447D-02-0.867D-02
 Coeff:     -0.302D-01 0.449D-02 0.240D+00 0.787D+00
 Gap=     0.178 Goal=   None    Shift=    0.000
 Gap=     0.190 Goal=   None    Shift=    0.000
 RMSDP=4.18D-05 MaxDP=5.08D-03 DE=-7.43D-05 OVMax= 2.25D-03

 Cycle  11  Pass 1  IDiag  1:
 RMSU=  1.55D-05    CP:  6.21D-01  1.47D+00  5.04D-01  1.08D+00  9.74D-01
                    CP:  1.60D+00  1.71D+00  1.31D+00  1.50D+00  1.20D+00
 E= -1217.56280089276     Delta-E=       -0.000008968379 Rises=F Damp=F
 DIIS: error= 1.04D-04 at cycle  11 NSaved=  11.
 NSaved=11 IEnMin=11 EnMin= -1217.56280089276     IErMin=11 ErrMin= 1.04D-04
 ErrMax= 1.04D-04  0.00D+00 EMaxC= 1.00D-01 BMatC= 6.11D-06 BMatP= 2.59D-05
 IDIUse=3 WtCom= 9.99D-01 WtEn= 1.04D-03
 Coeff-Com:  0.714D-04-0.218D-03 0.403D-03-0.108D-03 0.247D-02 0.117D-01
 Coeff-Com: -0.588D-02-0.369D-01-0.352D-01 0.284D+00 0.779D+00
 Coeff-En:   0.000D+00 0.000D+00 0.000D+00 0.000D+00 0.000D+00 0.000D+00
 Coeff-En:   0.000D+00 0.000D+00 0.000D+00 0.000D+00 0.100D+01
 Coeff:      0.714D-04-0.218D-03 0.403D-03-0.108D-03 0.247D-02 0.117D-01
 Coeff:     -0.587D-02-0.369D-01-0.352D-01 0.284D+00 0.780D+00
 Gap=     0.178 Goal=   None    Shift=    0.000
 Gap=     0.190 Goal=   None    Shift=    0.000
 RMSDP=2.08D-05 MaxDP=2.20D-03 DE=-8.97D-06 OVMax= 1.85D-03

 Cycle  12  Pass 1  IDiag  1:
 RMSU=  9.00D-06    CP:  6.21D-01  1.47D+00  5.04D-01  1.08D+00  9.73D-01
                    CP:  1.59D+00  1.69D+00  1.32D+00  1.57D+00  1.31D+00
                    CP:  1.35D+00
 E= -1217.56280442916     Delta-E=       -0.000003536400 Rises=F Damp=F
 DIIS: error= 8.04D-05 at cycle  12 NSaved=  12.
 NSaved=12 IEnMin=12 EnMin= -1217.56280442916     IErMin=12 ErrMin= 8.04D-05
 ErrMax= 8.04D-05  0.00D+00 EMaxC= 1.00D-01 BMatC= 7.32D-07 BMatP= 6.11D-06
 IDIUse=1 WtCom= 1.00D+00 WtEn= 0.00D+00
 Coeff-Com: -0.116D-03 0.176D-03 0.626D-05-0.891D-03-0.468D-03 0.407D-02
 Coeff-Com:  0.337D-02-0.921D-02-0.535D-01-0.136D+00 0.195D+00 0.997D+00
 Coeff:     -0.116D-03 0.176D-03 0.626D-05-0.891D-03-0.468D-03 0.407D-02
 Coeff:      0.337D-02-0.921D-02-0.535D-01-0.136D+00 0.195D+00 0.997D+00
 Gap=     0.178 Goal=   None    Shift=    0.000
 Gap=     0.190 Goal=   None    Shift=    0.000
 RMSDP=1.22D-05 MaxDP=9.56D-04 DE=-3.54D-06 OVMax= 2.03D-03

 Cycle  13  Pass 1  IDiag  1:
 RMSU=  4.58D-06    CP:  6.21D-01  1.47D+00  5.04D-01  1.08D+00  9.73D-01
                    CP:  1.59D+00  1.69D+00  1.33D+00  1.64D+00  1.39D+00
                    CP:  1.78D+00  1.50D+00
 E= -1217.56280605619     Delta-E=       -0.000001627025 Rises=F Damp=F
 DIIS: error= 5.11D-05 at cycle  13 NSaved=  13.
 NSaved=13 IEnMin=13 EnMin= -1217.56280605619     IErMin=13 ErrMin= 5.11D-05
 ErrMax= 5.11D-05  0.00D+00 EMaxC= 1.00D-01 BMatC= 2.62D-07 BMatP= 7.32D-07
 IDIUse=1 WtCom= 1.00D+00 WtEn= 0.00D+00
 Coeff-Com: -0.130D-04 0.514D-04-0.851D-04-0.145D-03-0.653D-03-0.225D-02
 Coeff-Com:  0.103D-02 0.587D-02-0.645D-02-0.134D+00-0.122D+00 0.369D+00
 Coeff-Com:  0.889D+00
 Coeff:     -0.130D-04 0.514D-04-0.851D-04-0.145D-03-0.653D-03-0.225D-02
 Coeff:      0.103D-02 0.587D-02-0.645D-02-0.134D+00-0.122D+00 0.369D+00
 Coeff:      0.889D+00
 Gap=     0.178 Goal=   None    Shift=    0.000
 Gap=     0.190 Goal=   None    Shift=    0.000
 RMSDP=7.36D-06 MaxDP=3.55D-04 DE=-1.63D-06 OVMax= 1.44D-03

 Cycle  14  Pass 1  IDiag  1:
 RMSU=  2.13D-06    CP:  6.21D-01  1.47D+00  5.04D-01  1.08D+00  9.73D-01
                    CP:  1.59D+00  1.69D+00  1.33D+00  1.66D+00  1.43D+00
                    CP:  2.00D+00  1.95D+00  1.70D+00
 E= -1217.56280669285     Delta-E=       -0.000000636660 Rises=F Damp=F
 DIIS: error= 3.28D-05 at cycle  14 NSaved=  14.
 NSaved=14 IEnMin=14 EnMin= -1217.56280669285     IErMin=14 ErrMin= 3.28D-05
 ErrMax= 3.28D-05  0.00D+00 EMaxC= 1.00D-01 BMatC= 6.16D-08 BMatP= 2.62D-07
 IDIUse=1 WtCom= 1.00D+00 WtEn= 0.00D+00
 Coeff-Com:  0.373D-04-0.471D-04-0.991D-05 0.279D-03 0.264D-03-0.673D-03
 Coeff-Com: -0.155D-02 0.184D-02 0.193D-01 0.464D-01-0.382D-01-0.349D+00
 Coeff-Com: -0.151D+00 0.147D+01
 Coeff:      0.373D-04-0.471D-04-0.991D-05 0.279D-03 0.264D-03-0.673D-03
 Coeff:     -0.155D-02 0.184D-02 0.193D-01 0.464D-01-0.382D-01-0.349D+00
 Coeff:     -0.151D+00 0.147D+01
 Gap=     0.178 Goal=   None    Shift=    0.000
 Gap=     0.190 Goal=   None    Shift=    0.000
 RMSDP=6.66D-06 MaxDP=3.12D-04 DE=-6.37D-07 OVMax= 1.43D-03

 Cycle  15  Pass 1  IDiag  1:
 RMSU=  1.47D-06    CP:  6.21D-01  1.47D+00  5.04D-01  1.08D+00  9.73D-01
                    CP:  1.59D+00  1.69D+00  1.33D+00  1.68D+00  1.44D+00
                    CP:  2.19D+00  2.33D+00  2.58D+00  1.86D+00
 E= -1217.56280701091     Delta-E=       -0.000000318058 Rises=F Damp=F
 DIIS: error= 1.41D-05 at cycle  15 NSaved=  15.
 NSaved=15 IEnMin=15 EnMin= -1217.56280701091     IErMin=15 ErrMin= 1.41D-05
 ErrMax= 1.41D-05  0.00D+00 EMaxC= 1.00D-01 BMatC= 1.90D-08 BMatP= 6.16D-08
 IDIUse=1 WtCom= 1.00D+00 WtEn= 0.00D+00
 Coeff-Com: -0.812D-05 0.179D-05 0.107D-04 0.150D-03 0.268D-03 0.385D-03
 Coeff-Com: -0.681D-03-0.367D-03 0.930D-02 0.497D-01 0.195D-01-0.202D+00
 Coeff-Com: -0.313D+00 0.523D+00 0.914D+00
 Coeff:     -0.812D-05 0.179D-05 0.107D-04 0.150D-03 0.268D-03 0.385D-03
 Coeff:     -0.681D-03-0.367D-03 0.930D-02 0.497D-01 0.195D-01-0.202D+00
 Coeff:     -0.313D+00 0.523D+00 0.914D+00
 Gap=     0.178 Goal=   None    Shift=    0.000
 Gap=     0.190 Goal=   None    Shift=    0.000
 RMSDP=2.74D-06 MaxDP=1.35D-04 DE=-3.18D-07 OVMax= 6.10D-04

 Cycle  16  Pass 1  IDiag  1:
 RMSU=  4.44D-07    CP:  6.21D-01  1.47D+00  5.04D-01  1.08D+00  9.73D-01
                    CP:  1.59D+00  1.69D+00  1.33D+00  1.68D+00  1.45D+00
                    CP:  2.25D+00  2.46D+00  2.96D+00  2.36D+00  1.59D+00
 E= -1217.56280707077     Delta-E=       -0.000000059859 Rises=F Damp=F
 DIIS: error= 6.15D-06 at cycle  16 NSaved=  16.
 NSaved=16 IEnMin=16 EnMin= -1217.56280707077     IErMin=16 ErrMin= 6.15D-06
 ErrMax= 6.15D-06  0.00D+00 EMaxC= 1.00D-01 BMatC= 4.38D-09 BMatP= 1.90D-08
 IDIUse=1 WtCom= 1.00D+00 WtEn= 0.00D+00
 Coeff-Com:  0.111D-04-0.168D-04 0.862D-05-0.796D-04-0.670D-04 0.351D-03
 Coeff-Com:  0.482D-03-0.790D-03-0.593D-02-0.899D-02 0.158D-01 0.895D-01
 Coeff-Com: -0.187D-01-0.382D+00 0.177D+00 0.113D+01
 Coeff:      0.111D-04-0.168D-04 0.862D-05-0.796D-04-0.670D-04 0.351D-03
 Coeff:      0.482D-03-0.790D-03-0.593D-02-0.899D-02 0.158D-01 0.895D-01
 Coeff:     -0.187D-01-0.382D+00 0.177D+00 0.113D+01
 Gap=     0.178 Goal=   None    Shift=    0.000
 Gap=     0.190 Goal=   None    Shift=    0.000
 RMSDP=1.50D-06 MaxDP=6.93D-05 DE=-5.99D-08 OVMax= 3.40D-04

 Cycle  17  Pass 1  IDiag  1:
 RMSU=  6.79D-07    CP:  6.21D-01  1.47D+00  5.04D-01  1.08D+00  9.73D-01
                    CP:  1.59D+00  1.69D+00  1.33D+00  1.68D+00  1.45D+00
                    CP:  2.28D+00  2.52D+00  3.00D+00  2.62D+00  2.10D+00
                    CP:  1.66D+00
 E= -1217.56280708479     Delta-E=       -0.000000014027 Rises=F Damp=F
 DIIS: error= 1.74D-06 at cycle  17 NSaved=  17.
 NSaved=17 IEnMin=17 EnMin= -1217.56280708479     IErMin=17 ErrMin= 1.74D-06
 ErrMax= 1.74D-06  0.00D+00 EMaxC= 1.00D-01 BMatC= 7.68D-10 BMatP= 4.38D-09
 IDIUse=1 WtCom= 1.00D+00 WtEn= 0.00D+00
 Coeff-Com:  0.648D-05-0.868D-05 0.441D-06-0.391D-04-0.512D-04-0.129D-04
 Coeff-Com:  0.195D-03-0.939D-04-0.241D-02-0.104D-01 0.355D-03 0.519D-01
 Coeff-Com:  0.393D-01-0.169D+00-0.954D-01 0.273D+00 0.912D+00
 Coeff:      0.648D-05-0.868D-05 0.441D-06-0.391D-04-0.512D-04-0.129D-04
 Coeff:      0.195D-03-0.939D-04-0.241D-02-0.104D-01 0.355D-03 0.519D-01
 Coeff:      0.393D-01-0.169D+00-0.954D-01 0.273D+00 0.912D+00
 Gap=     0.178 Goal=   None    Shift=    0.000
 Gap=     0.190 Goal=   None    Shift=    0.000
 RMSDP=4.44D-07 MaxDP=1.79D-05 DE=-1.40D-08 OVMax= 9.41D-05

 Cycle  18  Pass 1  IDiag  1:
 RMSU=  1.32D-07    CP:  6.21D-01  1.47D+00  5.04D-01  1.08D+00  9.73D-01
                    CP:  1.59D+00  1.69D+00  1.33D+00  1.68D+00  1.45D+00
                    CP:  2.28D+00  2.54D+00  3.00D+00  2.67D+00  2.25D+00
                    CP:  2.07D+00  1.35D+00
 E= -1217.56280708637     Delta-E=       -0.000000001582 Rises=F Damp=F
 DIIS: error= 5.81D-07 at cycle  18 NSaved=  18.
 NSaved=18 IEnMin=18 EnMin= -1217.56280708637     IErMin=18 ErrMin= 5.81D-07
 ErrMax= 5.81D-07  0.00D+00 EMaxC= 1.00D-01 BMatC= 1.75D-10 BMatP= 7.68D-10
 IDIUse=1 WtCom= 1.00D+00 WtEn= 0.00D+00
 Coeff-Com:  0.162D-06 0.615D-07-0.208D-05 0.563D-05 0.154D-05-0.743D-04
 Coeff-Com: -0.546D-04 0.159D-03 0.826D-03-0.895D-03-0.337D-02-0.584D-02
 Coeff-Com:  0.155D-01 0.397D-01-0.535D-01-0.187D+00 0.193D+00 0.100D+01
 Coeff:      0.162D-06 0.615D-07-0.208D-05 0.563D-05 0.154D-05-0.743D-04
 Coeff:     -0.546D-04 0.159D-03 0.826D-03-0.895D-03-0.337D-02-0.584D-02
 Coeff:      0.155D-01 0.397D-01-0.535D-01-0.187D+00 0.193D+00 0.100D+01
 Gap=     0.178 Goal=   None    Shift=    0.000
 Gap=     0.190 Goal=   None    Shift=    0.000
 RMSDP=2.05D-07 MaxDP=1.13D-05 DE=-1.58D-09 OVMax= 2.48D-05

 Cycle  19  Pass 1  IDiag  1:
 RMSU=  8.15D-08    CP:  6.21D-01  1.47D+00  5.04D-01  1.08D+00  9.73D-01
                    CP:  1.59D+00  1.69D+00  1.33D+00  1.68D+00  1.45D+00
                    CP:  2.28D+00  2.54D+00  3.00D+00  2.67D+00  2.30D+00
                    CP:  2.29D+00  1.46D+00  1.77D+00
 E= -1217.56280708672     Delta-E=       -0.000000000347 Rises=F Damp=F
 DIIS: error= 3.24D-07 at cycle  19 NSaved=  19.
 NSaved=19 IEnMin=19 EnMin= -1217.56280708672     IErMin=19 ErrMin= 3.24D-07
 ErrMax= 3.24D-07  0.00D+00 EMaxC= 1.00D-01 BMatC= 4.91D-11 BMatP= 1.75D-10
 IDIUse=1 WtCom= 1.00D+00 WtEn= 0.00D+00
 Coeff-Com: -0.554D-06 0.866D-06-0.685D-06 0.110D-04 0.103D-04-0.291D-04
 Coeff-Com: -0.671D-04 0.921D-04 0.876D-03 0.210D-02-0.152D-02-0.144D-01
 Coeff-Com: -0.269D-02 0.534D-01 0.285D-02-0.146D+00-0.111D+00 0.387D+00
 Coeff-Com:  0.829D+00
 Coeff:     -0.554D-06 0.866D-06-0.685D-06 0.110D-04 0.103D-04-0.291D-04
 Coeff:     -0.671D-04 0.921D-04 0.876D-03 0.210D-02-0.152D-02-0.144D-01
 Coeff:     -0.269D-02 0.534D-01 0.285D-02-0.146D+00-0.111D+00 0.387D+00
 Coeff:      0.829D+00
 Gap=     0.178 Goal=   None    Shift=    0.000
 Gap=     0.190 Goal=   None    Shift=    0.000
 RMSDP=1.06D-07 MaxDP=6.33D-06 DE=-3.47D-10 OVMax= 1.26D-05

 Cycle  20  Pass 1  IDiag  1:
 RMSU=  2.58D-08    CP:  6.21D-01  1.47D+00  5.04D-01  1.08D+00  9.73D-01
                    CP:  1.59D+00  1.69D+00  1.33D+00  1.68D+00  1.45D+00
                    CP:  2.28D+00  2.54D+00  3.00D+00  2.67D+00  2.33D+00
                    CP:  2.39D+00  1.52D+00  2.28D+00  1.29D+00
 E= -1217.56280708680     Delta-E=       -0.000000000082 Rises=F Damp=F
 DIIS: error= 1.00D-07 at cycle  20 NSaved=  20.
 NSaved=20 IEnMin=20 EnMin= -1217.56280708680     IErMin=20 ErrMin= 1.00D-07
 ErrMax= 1.00D-07  0.00D+00 EMaxC= 1.00D-01 BMatC= 1.15D-11 BMatP= 4.91D-11
 IDIUse=1 WtCom= 1.00D+00 WtEn= 0.00D+00
 Coeff-Com: -0.538D-06 0.672D-06 0.431D-06 0.235D-05 0.284D-05 0.162D-04
 Coeff-Com: -0.413D-05-0.174D-04 0.208D-04 0.113D-02 0.560D-03-0.309D-02
 Coeff-Com: -0.581D-02 0.460D-02 0.186D-01 0.652D-02-0.941D-01-0.172D+00
 Coeff-Com:  0.297D+00 0.946D+00
 Coeff:     -0.538D-06 0.672D-06 0.431D-06 0.235D-05 0.284D-05 0.162D-04
 Coeff:     -0.413D-05-0.174D-04 0.208D-04 0.113D-02 0.560D-03-0.309D-02
 Coeff:     -0.581D-02 0.460D-02 0.186D-01 0.652D-02-0.941D-01-0.172D+00
 Coeff:      0.297D+00 0.946D+00
 Gap=     0.178 Goal=   None    Shift=    0.000
 Gap=     0.190 Goal=   None    Shift=    0.000
 RMSDP=6.14D-08 MaxDP=4.60D-06 DE=-8.19D-11 OVMax= 7.18D-06

 Cycle  21  Pass 1  IDiag  1:
 Restarting incremental Fock formation.
 E= -1217.56280708666     Delta-E=        0.000000000145 Rises=F Damp=F
 DIIS: error= 3.29D-08 at cycle  21 NSaved=  20.
 NSaved=20 IEnMin=19 EnMin= -1217.56280708680     IErMin=20 ErrMin= 3.29D-08
 ErrMax= 3.29D-08  0.00D+00 EMaxC= 1.00D-01 BMatC= 1.22D-12 BMatP= 1.15D-11
 IDIUse=1 WtCom= 1.00D+00 WtEn= 0.00D+00
 Coeff-Com: -0.129D-07 0.266D-06-0.671D-06-0.279D-06 0.562D-05 0.456D-05
 Coeff-Com: -0.176D-04-0.847D-04 0.378D-04 0.361D-03 0.619D-03-0.934D-03
 Coeff-Com: -0.368D-02 0.280D-02 0.182D-01-0.803D-02-0.685D-01-0.473D-01
 Coeff-Com:  0.169D+00 0.938D+00
 Coeff:     -0.129D-07 0.266D-06-0.671D-06-0.279D-06 0.562D-05 0.456D-05
 Coeff:     -0.176D-04-0.847D-04 0.378D-04 0.361D-03 0.619D-03-0.934D-03
 Coeff:     -0.368D-02 0.280D-02 0.182D-01-0.803D-02-0.685D-01-0.473D-01
 Coeff:      0.169D+00 0.938D+00
 Gap=     0.178 Goal=   None    Shift=    0.000
 Gap=     0.190 Goal=   None    Shift=    0.000
 RMSDP=1.89D-08 MaxDP=1.68D-06 DE= 1.45D-10 OVMax= 2.16D-06

 Cycle  22  Pass 1  IDiag  1:
 RMSU=  1.89D-08    CP:  1.00D+00
 E= -1217.56280708666     Delta-E=        0.000000000004 Rises=F Damp=F
 DIIS: error= 1.96D-08 at cycle  22 NSaved=  20.
 NSaved=20 IEnMin=18 EnMin= -1217.56280708680     IErMin=20 ErrMin= 1.96D-08
 ErrMax= 1.96D-08  0.00D+00 EMaxC= 1.00D-01 BMatC= 3.11D-13 BMatP= 1.22D-12
 IDIUse=1 WtCom= 1.00D+00 WtEn= 0.00D+00
 Coeff-Com: -0.273D-07-0.588D-06-0.349D-06-0.175D-05 0.160D-05-0.206D-05
 Coeff-Com: -0.255D-04-0.230D-03-0.155D-04 0.731D-03 0.115D-02-0.216D-02
 Coeff-Com: -0.370D-02 0.386D-02 0.153D-01 0.235D-01-0.706D-01-0.180D+00
 Coeff-Com:  0.208D+00 0.100D+01
 Coeff:     -0.273D-07-0.588D-06-0.349D-06-0.175D-05 0.160D-05-0.206D-05
 Coeff:     -0.255D-04-0.230D-03-0.155D-04 0.731D-03 0.115D-02-0.216D-02
 Coeff:     -0.370D-02 0.386D-02 0.153D-01 0.235D-01-0.706D-01-0.180D+00
 Coeff:      0.208D+00 0.100D+01
 Gap=     0.178 Goal=   None    Shift=    0.000
 Gap=     0.190 Goal=   None    Shift=    0.000
 RMSDP=1.05D-08 MaxDP=7.19D-07 DE= 3.64D-12 OVMax= 1.11D-06

 Cycle  23  Pass 1  IDiag  1:
 RMSU=  5.33D-09    CP:  1.00D+00  1.48D+00
 E= -1217.56280708664     Delta-E=        0.000000000012 Rises=F Damp=F
 DIIS: error= 1.10D-08 at cycle  23 NSaved=  20.
 NSaved=20 IEnMin=17 EnMin= -1217.56280708680     IErMin=20 ErrMin= 1.10D-08
 ErrMax= 1.10D-08  0.00D+00 EMaxC= 1.00D-01 BMatC= 5.76D-14 BMatP= 3.11D-13
 IDIUse=1 WtCom= 1.00D+00 WtEn= 0.00D+00
 Coeff-Com:  0.603D-07 0.561D-07-0.814D-06-0.108D-05 0.778D-06 0.607D-05
 Coeff-Com: -0.217D-04-0.483D-04-0.443D-05 0.311D-03 0.346D-04-0.617D-03
 Coeff-Com: -0.153D-02 0.195D-02 0.116D-01 0.124D-02-0.493D-01-0.112D+00
 Coeff-Com:  0.131D+00 0.102D+01
 Coeff:      0.603D-07 0.561D-07-0.814D-06-0.108D-05 0.778D-06 0.607D-05
 Coeff:     -0.217D-04-0.483D-04-0.443D-05 0.311D-03 0.346D-04-0.617D-03
 Coeff:     -0.153D-02 0.195D-02 0.116D-01 0.124D-02-0.493D-01-0.112D+00
 Coeff:      0.131D+00 0.102D+01
 Gap=     0.178 Goal=   None    Shift=    0.000
 Gap=     0.190 Goal=   None    Shift=    0.000
 RMSDP=4.46D-09 MaxDP=3.21D-07 DE= 1.23D-11 OVMax= 5.34D-07

 SCF Done:  E(UwB97XD) =  -1217.56280709     A.U. after   23 cycles
            NFock= 23  Conv=0.45D-08     -V/T= 3.1006
 <Sx>= 0.0000 <Sy>= 0.0000 <Sz>= 0.5000 <S**2>= 0.7547 S= 0.5023
 <L.S>=  0.00000000000    
 KE= 5.796193719416D+02 PE=-5.971307001853D+03 EE= 2.519753029513D+03
 Annihilation of the first spin contaminant:
 S**2 before annihilation     0.7547,   after     0.7500
 Leave Link  502 at Mon Feb 24 14:32:37 2025, MaxMem=  2097152000 cpu:             667.6 elap:             168.3
 (Enter /nvme/h/buildsets/eb_nepheli/software/Gaussian/16.C.01-AVX2/g16/l508.exe)
 QCSCF skips out because SCF is already converged.
 Leave Link  508 at Mon Feb 24 14:32:37 2025, MaxMem=  2097152000 cpu:               0.0 elap:               0.0
 (Enter /nvme/h/buildsets/eb_nepheli/software/Gaussian/16.C.01-AVX2/g16/l601.exe)
 Copying SCF densities to generalized density rwf, IOpCl= 1 IROHF=0.

 **********************************************************************

            Population analysis using the SCF Density.

 **********************************************************************

 Orbital symmetries:
 Alpha Orbitals:
       Occupied  (A) (A) (A) (A) (A) (A) (A) (A) (A) (A) (A) (A)
                 (A) (A) (A) (A) (A) (A) (A) (A) (A) (A) (A) (A)
                 (A) (A) (A) (A) (A) (A) (A) (A) (A) (A) (A) (A)
                 (A) (A) (A) (A) (A) (A) (A) (A) (A) (A) (A) (A)
                 (A) (A) (A) (A) (A) (A) (A) (A) (A) (A) (A) (A)
                 (A) (A) (A) (A) (A) (A) (A) (A) (A) (A) (A) (A)
                 (A) (A) (A) (A) (A) (A)
       Virtual   (A) (A) (A) (A) (A) (A) (A) (A) (A) (A) (A) (A)
                 (A) (A) (A) (A) (A) (A) (A) (A) (A) (A) (A) (A)
                 (A) (A) (A) (A) (A) (A) (A) (A) (A) (A) (A) (A)
                 (A) (A) (A) (A) (A) (A) (A) (A) (A) (A) (A) (A)
                 (A) (A) (A) (A) (A) (A) (A) (A) (A) (A) (A) (A)
                 (A) (A) (A) (A) (A) (A) (A) (A) (A) (A) (A) (A)
                 (A) (A) (A) (A) (A) (A) (A) (A) (A) (A) (A) (A)
                 (A) (A) (A) (A) (A) (A) (A) (A) (A) (A) (A) (A)
                 (A) (A) (A) (A) (A) (A) (A) (A) (A) (A) (A) (A)
                 (A) (A) (A) (A) (A) (A) (A) (A) (A) (A) (A) (A)
                 (A) (A) (A) (A) (A) (A) (A) (A) (A) (A) (A) (A)
                 (A) (A) (A) (A) (A) (A) (A) (A) (A) (A) (A) (A)
                 (A) (A) (A) (A) (A) (A) (A) (A) (A) (A) (A) (A)
                 (A) (A) (A) (A) (A) (A) (A) (A) (A) (A) (A) (A)
                 (A) (A) (A) (A) (A) (A) (A) (A) (A) (A) (A) (A)
                 (A)
 Beta  Orbitals:
       Occupied  (A) (A) (A) (A) (A) (A) (A) (A) (A) (A) (A) (A)
                 (A) (A) (A) (A) (A) (A) (A) (A) (A) (A) (A) (A)
                 (A) (A) (A) (A) (A) (A) (A) (A) (A) (A) (A) (A)
                 (A) (A) (A) (A) (A) (A) (A) (A) (A) (A) (A) (A)
                 (A) (A) (A) (A) (A) (A) (A) (A) (A) (A) (A) (A)
                 (A) (A) (A) (A) (A) (A) (A) (A) (A) (A) (A) (A)
                 (A) (A) (A) (A) (A)
       Virtual   (A) (A) (A) (A) (A) (A) (A) (A) (A) (A) (A) (A)
                 (A) (A) (A) (A) (A) (A) (A) (A) (A) (A) (A) (A)
                 (A) (A) (A) (A) (A) (A) (A) (A) (A) (A) (A) (A)
                 (A) (A) (A) (A) (A) (A) (A) (A) (A) (A) (A) (A)
                 (A) (A) (A) (A) (A) (A) (A) (A) (A) (A) (A) (A)
                 (A) (A) (A) (A) (A) (A) (A) (A) (A) (A) (A) (A)
                 (A) (A) (A) (A) (A) (A) (A) (A) (A) (A) (A) (A)
                 (A) (A) (A) (A) (A) (A) (A) (A) (A) (A) (A) (A)
                 (A) (A) (A) (A) (A) (A) (A) (A) (A) (A) (A) (A)
                 (A) (A) (A) (A) (A) (A) (A) (A) (A) (A) (A) (A)
                 (A) (A) (A) (A) (A) (A) (A) (A) (A) (A) (A) (A)
                 (A) (A) (A) (A) (A) (A) (A) (A) (A) (A) (A) (A)
                 (A) (A) (A) (A) (A) (A) (A) (A) (A) (A) (A) (A)
                 (A) (A) (A) (A) (A) (A) (A) (A) (A) (A) (A) (A)
                 (A) (A) (A) (A) (A) (A) (A) (A) (A) (A) (A) (A)
                 (A) (A)
 The electronic state is 2-A.
 Alpha  occ. eigenvalues --  -19.34767 -19.34700 -10.50026  -3.84568  -3.84429
 Alpha  occ. eigenvalues --   -3.84314  -3.84207  -3.84206  -3.84172  -3.84159
 Alpha  occ. eigenvalues --   -2.42791  -2.42776  -2.42767  -2.42653  -2.42631
 Alpha  occ. eigenvalues --   -2.42607  -2.42541  -2.42519  -2.42470  -2.42439
 Alpha  occ. eigenvalues --   -2.42437  -2.42394  -2.42388  -2.42388  -2.42288
 Alpha  occ. eigenvalues --   -2.42276  -2.42263  -2.42255  -2.42232  -2.42230
 Alpha  occ. eigenvalues --   -2.42186  -1.26215  -1.22081  -0.65370  -0.62070
 Alpha  occ. eigenvalues --   -0.61858  -0.61507  -0.47062  -0.46795  -0.46460
 Alpha  occ. eigenvalues --   -0.46245  -0.46195  -0.45483  -0.45451  -0.44659
 Alpha  occ. eigenvalues --   -0.44654  -0.44619  -0.44359  -0.44344  -0.44230
 Alpha  occ. eigenvalues --   -0.43164  -0.43132  -0.42362  -0.42356  -0.41857
 Alpha  occ. eigenvalues --   -0.41802  -0.41476  -0.40763  -0.40749  -0.40603
 Alpha  occ. eigenvalues --   -0.40543  -0.40452  -0.40433  -0.39751  -0.39622
 Alpha  occ. eigenvalues --   -0.39407  -0.39358  -0.39225  -0.39222  -0.38902
 Alpha  occ. eigenvalues --   -0.38699  -0.38674  -0.38615  -0.38395  -0.38372
 Alpha  occ. eigenvalues --   -0.25296  -0.25285  -0.20996
 Alpha virt. eigenvalues --   -0.03164  -0.02974  -0.02176   0.01322   0.01369
 Alpha virt. eigenvalues --    0.02296   0.05389   0.05548   0.06387   0.06551
 Alpha virt. eigenvalues --    0.09754   0.10356   0.10587   0.11443   0.11585
 Alpha virt. eigenvalues --    0.11805   0.13194   0.13506   0.14127   0.14742
 Alpha virt. eigenvalues --    0.14758   0.15096   0.15165   0.17217   0.18127
 Alpha virt. eigenvalues --    0.20439   0.20637   0.24553   0.25478   0.25720
 Alpha virt. eigenvalues --    0.27446   0.27848   0.28357   0.28893   0.31174
 Alpha virt. eigenvalues --    0.31392   0.31418   0.32583   0.33050   0.34152
 Alpha virt. eigenvalues --    0.36698   0.36928   0.39127   0.39201   0.40444
 Alpha virt. eigenvalues --    0.40459   0.44822   0.45247   0.45431   0.46235
 Alpha virt. eigenvalues --    0.46965   0.47547   0.48635   0.50087   0.50918
 Alpha virt. eigenvalues --    0.53756   0.53783   0.55564   0.56043   0.56984
 Alpha virt. eigenvalues --    0.62171   0.63029   0.65104   0.66571   0.67262
 Alpha virt. eigenvalues --    0.67573   0.67622   0.67716   0.68794   0.69569
 Alpha virt. eigenvalues --    0.69725   0.75204   0.75451   0.75739   0.76378
 Alpha virt. eigenvalues --    0.77040   0.79079   0.79791   0.81053   0.81217
 Alpha virt. eigenvalues --    0.82108   0.83684   0.84659   0.84881   0.85568
 Alpha virt. eigenvalues --    0.86202   0.86563   0.86778   0.86879   0.89722
 Alpha virt. eigenvalues --    0.93288   0.93743   1.01000   1.01854   1.02452
 Alpha virt. eigenvalues --    1.02819   1.02931   1.14392   1.19423   1.20844
 Alpha virt. eigenvalues --    1.25084   1.38085   1.60309   1.61575   1.65254
 Alpha virt. eigenvalues --    1.65378   1.73205   2.14937   2.27948   2.29218
 Alpha virt. eigenvalues --    2.30810   2.32071   2.36555   2.37644   2.62616
 Alpha virt. eigenvalues --    2.63201   2.67633   2.67633   2.67710   2.67716
 Alpha virt. eigenvalues --    2.67737   2.67739   2.67828   2.67831   2.67841
 Alpha virt. eigenvalues --    2.67848   2.67900   2.67901   2.67935   2.67936
 Alpha virt. eigenvalues --    2.67940   2.67974   2.68057   2.68098   2.68115
 Alpha virt. eigenvalues --    2.68140   2.68161   2.68272   2.68317   2.68318
 Alpha virt. eigenvalues --    2.68381   2.68385   2.68447   2.68447   2.68602
 Alpha virt. eigenvalues --    2.68677   2.68717   2.68733   2.69258   2.69531
 Alpha virt. eigenvalues --    2.69676   2.69782   2.69785   2.70152   2.70202
 Alpha virt. eigenvalues --    2.70248   2.70262   2.70380   2.70458   2.70527
 Alpha virt. eigenvalues --    2.70576   2.72217   2.72326   2.72718   2.72922
 Alpha virt. eigenvalues --    2.74905   2.75321   2.84956   2.85351   2.93334
 Alpha virt. eigenvalues --    3.63390   3.63723   3.66764   3.99848  54.31787
 Alpha virt. eigenvalues --   54.41521  54.42363  54.42433  54.43551  54.48393
 Alpha virt. eigenvalues --   54.49472
  Beta  occ. eigenvalues --  -19.34762 -19.34680 -10.50024  -3.84408  -3.84277
  Beta  occ. eigenvalues --   -3.84263  -3.84166  -3.84164  -3.84131  -3.84118
  Beta  occ. eigenvalues --   -2.42688  -2.42669  -2.42664  -2.42547  -2.42536
  Beta  occ. eigenvalues --   -2.42513  -2.42485  -2.42467  -2.42397  -2.42365
  Beta  occ. eigenvalues --   -2.42360  -2.42351  -2.42335  -2.42312  -2.42263
  Beta  occ. eigenvalues --   -2.42235  -2.42203  -2.42193  -2.42178  -2.42160
  Beta  occ. eigenvalues --   -2.42159  -1.26191  -1.22054  -0.65358  -0.62033
  Beta  occ. eigenvalues --   -0.61852  -0.61494  -0.46866  -0.46650  -0.46446
  Beta  occ. eigenvalues --   -0.46135  -0.46093  -0.45420  -0.45388  -0.44537
  Beta  occ. eigenvalues --   -0.44498  -0.44445  -0.44193  -0.44183  -0.44170
  Beta  occ. eigenvalues --   -0.43146  -0.43115  -0.42270  -0.42265  -0.41775
  Beta  occ. eigenvalues --   -0.41720  -0.41252  -0.40688  -0.40676  -0.40582
  Beta  occ. eigenvalues --   -0.40528  -0.40422  -0.40402  -0.39624  -0.39377
  Beta  occ. eigenvalues --   -0.39312  -0.39268  -0.39001  -0.38999  -0.38595
  Beta  occ. eigenvalues --   -0.38511  -0.38472  -0.38344  -0.38332  -0.37710
  Beta  occ. eigenvalues --   -0.25042  -0.25024
  Beta virt. eigenvalues --   -0.06053  -0.03223  -0.03014  -0.01974   0.02086
  Beta virt. eigenvalues --    0.02196   0.03719   0.05497   0.05651   0.06320
  Beta virt. eigenvalues --    0.06499   0.09990   0.10451   0.10498   0.11261
  Beta virt. eigenvalues --    0.11430   0.12031   0.12703   0.12743   0.14203
  Beta virt. eigenvalues --    0.14709   0.14720   0.15045   0.15107   0.17015
  Beta virt. eigenvalues --    0.18018   0.20310   0.20617   0.23860   0.25011
  Beta virt. eigenvalues --    0.25769   0.27429   0.27720   0.28238   0.28781
  Beta virt. eigenvalues --    0.30912   0.31291   0.31322   0.32409   0.32985
  Beta virt. eigenvalues --    0.34070   0.36637   0.37330   0.39218   0.39245
  Beta virt. eigenvalues --    0.40448   0.40537   0.44901   0.45357   0.45554
  Beta virt. eigenvalues --    0.46319   0.47149   0.47668   0.48615   0.50092
  Beta virt. eigenvalues --    0.50920   0.53751   0.53855   0.55532   0.56089
  Beta virt. eigenvalues --    0.56889   0.62204   0.63067   0.65125   0.66681
  Beta virt. eigenvalues --    0.67225   0.67531   0.67682   0.67818   0.68800
  Beta virt. eigenvalues --    0.69581   0.69717   0.75199   0.75504   0.75814
  Beta virt. eigenvalues --    0.76435   0.77148   0.79133   0.79841   0.81026
  Beta virt. eigenvalues --    0.81358   0.82101   0.83965   0.84677   0.84889
  Beta virt. eigenvalues --    0.85486   0.86231   0.86582   0.86809   0.86915
  Beta virt. eigenvalues --    0.89702   0.93412   0.93826   1.01036   1.01853
  Beta virt. eigenvalues --    1.02506   1.02782   1.02941   1.14411   1.19385
  Beta virt. eigenvalues --    1.20821   1.25072   1.38035   1.60315   1.61582
  Beta virt. eigenvalues --    1.65259   1.65391   1.73140   2.15028   2.27974
  Beta virt. eigenvalues --    2.29244   2.30814   2.32079   2.36793   2.37881
  Beta virt. eigenvalues --    2.62631   2.63219   2.67752   2.67768   2.67770
  Beta virt. eigenvalues --    2.67774   2.67798   2.67802   2.67865   2.67881
  Beta virt. eigenvalues --    2.67893   2.67910   2.67922   2.67954   2.67960
  Beta virt. eigenvalues --    2.67978   2.68001   2.68014   2.68117   2.68154
  Beta virt. eigenvalues --    2.68189   2.68199   2.68212   2.68311   2.68356
  Beta virt. eigenvalues --    2.68363   2.68404   2.68409   2.68478   2.68486
  Beta virt. eigenvalues --    2.68636   2.68714   2.68749   2.68764   2.69351
  Beta virt. eigenvalues --    2.69678   2.69736   2.69801   2.69849   2.70216
  Beta virt. eigenvalues --    2.70265   2.70319   2.70330   2.70437   2.70511
  Beta virt. eigenvalues --    2.70558   2.70600   2.72259   2.72370   2.72794
  Beta virt. eigenvalues --    2.73000   2.74921   2.75339   2.84966   2.85368
  Beta virt. eigenvalues --    2.93349   3.63399   3.63739   3.66772   3.99853
  Beta virt. eigenvalues --   54.31770  54.41522  54.42363  54.42433  54.43550
  Beta virt. eigenvalues --   54.48321  54.49396
          Condensed to atoms (all electrons):
               1          2          3          4          5          6
     1  Ag  18.561380   0.113754   0.008250   0.093800   0.124222   0.009405
     2  Ag   0.113754  18.537548   0.119459   0.120396   0.021768   0.008651
     3  Ag   0.008250   0.119459  18.537375   0.120986   0.021284   0.113820
     4  Ag   0.093800   0.120396   0.120986  18.906192  -0.337963   0.094408
     5  Ag   0.124222   0.021768   0.021284  -0.337963  19.100036   0.123742
     6  Ag   0.009405   0.008651   0.113820   0.094408   0.123742  18.559681
     7  Ag   0.117247  -0.007869  -0.008254   0.055528   0.106402   0.117412
     8  C    0.002876  -0.001099  -0.001108  -0.003179  -0.002880   0.002644
     9  O   -0.004526   0.001457   0.001511   0.001510   0.042013  -0.004422
    10  O   -0.004100   0.000166   0.000159   0.001884  -0.013873  -0.004013
               7          8          9         10
     1  Ag   0.117247   0.002876  -0.004526  -0.004100
     2  Ag  -0.007869  -0.001099   0.001457   0.000166
     3  Ag  -0.008254  -0.001108   0.001511   0.000159
     4  Ag   0.055528  -0.003179   0.001510   0.001884
     5  Ag   0.106402  -0.002880   0.042013  -0.013873
     6  Ag   0.117412   0.002644  -0.004422  -0.004013
     7  Ag  18.549652  -0.004217  -0.010614   0.045789
     8  C   -0.004217   4.383490   0.626566   0.620442
     9  O   -0.010614   0.626566   7.510411  -0.019553
    10  O    0.045789   0.620442  -0.019553   7.534481
          Atomic-Atomic Spin Densities.
               1          2          3          4          5          6
     1  Ag   0.010624   0.005273  -0.000508   0.016665   0.008874  -0.000878
     2  Ag   0.005273   0.013729   0.005200   0.036109  -0.015980  -0.000498
     3  Ag  -0.000508   0.005200   0.013734   0.036390  -0.016377   0.005285
     4  Ag   0.016665   0.036109   0.036390   0.709513  -0.417029   0.016965
     5  Ag   0.008874  -0.015980  -0.016377  -0.417029   0.789376   0.008470
     6  Ag  -0.000878  -0.000498   0.005285   0.016965   0.008470   0.010767
     7  Ag   0.001811  -0.001368  -0.001345   0.001490   0.028211   0.001763
     8  C    0.000137   0.000011   0.000010  -0.000042   0.000527   0.000138
     9  O   -0.000036  -0.000048  -0.000049   0.000419  -0.006027  -0.000032
    10  O   -0.000079   0.000006   0.000006   0.000374  -0.001312  -0.000075
               7          8          9         10
     1  Ag   0.001811   0.000137  -0.000036  -0.000079
     2  Ag  -0.001368   0.000011  -0.000048   0.000006
     3  Ag  -0.001345   0.000010  -0.000049   0.000006
     4  Ag   0.001490  -0.000042   0.000419   0.000374
     5  Ag   0.028211   0.000527  -0.006027  -0.001312
     6  Ag   0.001763   0.000138  -0.000032  -0.000075
     7  Ag   0.017804   0.000249  -0.000569  -0.001080
     8  C    0.000249   0.001157   0.000114  -0.000242
     9  O   -0.000569   0.000114   0.008840   0.000193
    10  O   -0.001080  -0.000242   0.000193   0.002233
 Mulliken charges and spin densities:
               1          2
     1  Ag  -0.022307   0.041883
     2  Ag   0.085771   0.042431
     3  Ag   0.086518   0.042344
     4  Ag  -0.053561   0.400853
     5  Ag  -0.184749   0.378733
     6  Ag  -0.021327   0.041904
     7  Ag   0.038925   0.046965
     8  C    0.376466   0.002059
     9  O   -0.144353   0.002805
    10  O   -0.161382   0.000022
 Sum of Mulliken charges =  -0.00000   1.00000
 Mulliken charges and spin densities with hydrogens summed into heavy atoms:
               1          2
     1  Ag  -0.022307   0.041883
     2  Ag   0.085771   0.042431
     3  Ag   0.086518   0.042344
     4  Ag  -0.053561   0.400853
     5  Ag  -0.184749   0.378733
     6  Ag  -0.021327   0.041904
     7  Ag   0.038925   0.046965
     8  C    0.376466   0.002059
     9  O   -0.144353   0.002805
    10  O   -0.161382   0.000022
 Electronic spatial extent (au):  <R**2>=           4220.6722
 Charge=             -0.0000 electrons
 Dipole moment (field-independent basis, Debye):
    X=             -0.3973    Y=             -0.0003    Z=              0.2240  Tot=              0.4561
 Quadrupole moment (field-independent basis, Debye-Ang):
   XX=           -146.7751   YY=           -146.2245   ZZ=           -158.2998
   XY=              0.0086   XZ=              1.0219   YZ=              0.0226
 Traceless Quadrupole moment (field-independent basis, Debye-Ang):
   XX=              3.6580   YY=              4.2086   ZZ=             -7.8667
   XY=              0.0086   XZ=              1.0219   YZ=              0.0226
 Octapole moment (field-independent basis, Debye-Ang**2):
  XXX=             71.0652  YYY=              0.0376  ZZZ=            -45.7408  XYY=             23.3625
  XXY=             -0.0846  XXZ=              9.0337  XZZ=             23.0399  YZZ=              0.0930
  YYZ=            -10.6025  XYZ=             -0.0466
 Hexadecapole moment (field-independent basis, Debye-Ang**3):
 XXXX=          -3170.5463 YYYY=          -1782.2468 ZZZZ=          -1393.8878 XXXY=              0.4441
 XXXZ=             72.9927 YYYX=             -0.1622 YYYZ=              0.2227 ZZZX=            160.2089
 ZZZY=              0.3874 XXYY=           -812.4371 XXZZ=           -730.3805 YYZZ=           -542.8389
 XXYZ=              0.1582 YYXZ=             55.1937 ZZXY=             -0.2999
 N-N= 1.654371793312D+03 E-N=-5.971307002611D+03  KE= 5.796193719416D+02
                          Isotropic Fermi Contact Couplings
        Atom                 a.u.       MegaHertz       Gauss      10(-4) cm-1
     1  Ag(107            -0.00000       0.00083       0.00030       0.00028
     2  Ag(107            -0.00000       0.00083       0.00030       0.00028
     3  Ag(107            -0.00000       0.00083       0.00030       0.00028
     4  Ag(107             0.00013      -0.02451      -0.00875      -0.00818
     5  Ag(107             0.00013      -0.02411      -0.00860      -0.00804
     6  Ag(107            -0.00000       0.00083       0.00030       0.00028
     7  Ag(107            -0.00000       0.00077       0.00027       0.00026
     8  C(13)             -0.00012      -0.13694      -0.04886      -0.04568
     9  O(17)              0.02285     -13.84857      -4.94151      -4.61939
    10  O(17)              0.00763      -4.62667      -1.65091      -1.54329
 --------------------------------------------------------
       Center         ----  Spin Dipole Couplings  ----
                      3XX-RR        3YY-RR        3ZZ-RR
 --------------------------------------------------------
     1   Atom       -0.010181      0.001896      0.008285
     2   Atom       -0.000720     -0.008431      0.009151
     3   Atom       -0.000586     -0.008614      0.009200
     4   Atom        0.008541      0.010795     -0.019336
     5   Atom        0.005918      0.014264     -0.020183
     6   Atom       -0.010262      0.002012      0.008251
     7   Atom        0.006353     -0.015549      0.009196
     8   Atom        0.004084     -0.003296     -0.000787
     9   Atom        0.008483     -0.008224     -0.000259
    10   Atom        0.005062     -0.002401     -0.002661
 --------------------------------------------------------
                        XY            XZ            YZ
 --------------------------------------------------------
     1   Atom        0.004715     -0.007902      0.003146
     2   Atom       -0.007907     -0.004737     -0.004104
     3   Atom        0.007860     -0.004663      0.004063
     4   Atom       -0.000014      0.013722      0.000005
     5   Atom        0.000002      0.012743      0.000035
     6   Atom       -0.004574     -0.007955     -0.003101
     7   Atom       -0.000084     -0.003781     -0.000047
     8   Atom        0.000008     -0.001982     -0.000014
     9   Atom        0.000061     -0.013768     -0.000030
    10   Atom       -0.000015      0.002414      0.000001
 --------------------------------------------------------


 ---------------------------------------------------------------------------------
              Anisotropic Spin Dipole Couplings in Principal Axis System
 ---------------------------------------------------------------------------------

       Atom             a.u.   MegaHertz   Gauss  10(-4) cm-1        Axes

              Baa    -0.0149     0.324     0.115     0.108  0.8854 -0.3127  0.3440
     1 Ag(107 Bbb     0.0035    -0.076    -0.027    -0.025  0.3473  0.9368 -0.0425
              Bcc     0.0114    -0.248    -0.088    -0.083 -0.3089  0.1571  0.9380
 
              Baa    -0.0149     0.323     0.115     0.108  0.5338  0.8098  0.2435
     2 Ag(107 Bbb     0.0038    -0.082    -0.029    -0.027  0.7764 -0.5834  0.2384
              Bcc     0.0111    -0.241    -0.086    -0.080 -0.3352 -0.0618  0.9401
 
              Baa    -0.0149     0.323     0.115     0.108 -0.5266  0.8156 -0.2396
     3 Ag(107 Bbb     0.0038    -0.082    -0.029    -0.027  0.7817  0.5754  0.2405
              Bcc     0.0111    -0.241    -0.086    -0.080 -0.3340  0.0606  0.9406
 
              Baa    -0.0250     0.541     0.193     0.181 -0.3791 -0.0003  0.9254
     4 Ag(107 Bbb     0.0108    -0.234    -0.084    -0.078  0.0030  1.0000  0.0015
              Bcc     0.0142    -0.307    -0.110    -0.102  0.9254 -0.0033  0.3791
 
              Baa    -0.0254     0.551     0.196     0.184 -0.3772 -0.0008  0.9261
     5 Ag(107 Bbb     0.0111    -0.241    -0.086    -0.080  0.9261 -0.0049  0.3772
              Bcc     0.0143    -0.309    -0.110    -0.103  0.0043  1.0000  0.0026
 
              Baa    -0.0149     0.324     0.115     0.108  0.8881  0.3032  0.3455
     6 Ag(107 Bbb     0.0035    -0.076    -0.027    -0.025 -0.3388  0.9397  0.0462
              Bcc     0.0114    -0.248    -0.088    -0.083 -0.3107 -0.1581  0.9373
 
              Baa    -0.0155     0.337     0.120     0.113  0.0043  1.0000  0.0025
     7 Ag(107 Bbb     0.0037    -0.081    -0.029    -0.027  0.8222 -0.0050  0.5692
              Bcc     0.0118    -0.256    -0.091    -0.086 -0.5693  0.0003  0.8222
 
              Baa    -0.0033    -0.442    -0.158    -0.148  0.0004  1.0000  0.0057
     8 C(13)  Bbb    -0.0015    -0.200    -0.071    -0.067  0.3349 -0.0056  0.9422
              Bcc     0.0048     0.642     0.229     0.214  0.9422  0.0015 -0.3349
 
              Baa    -0.0103     0.748     0.267     0.249  0.5905 -0.0054  0.8070
     9 O(17)  Bbb    -0.0082     0.595     0.212     0.198  0.0012  1.0000  0.0058
              Bcc     0.0186    -1.343    -0.479    -0.448  0.8070  0.0025 -0.5905
 
              Baa    -0.0034     0.243     0.087     0.081 -0.2757 -0.0051  0.9612
    10 O(17)  Bbb    -0.0024     0.174     0.062     0.058  0.0002  1.0000  0.0053
              Bcc     0.0058    -0.416    -0.149    -0.139  0.9612 -0.0017  0.2757
 

 ---------------------------------------------------------------------------------

 No NMR shielding tensors so no spin-rotation constants.
 Leave Link  601 at Mon Feb 24 14:32:37 2025, MaxMem=  2097152000 cpu:               0.8 elap:               0.2
 (Enter /nvme/h/buildsets/eb_nepheli/software/Gaussian/16.C.01-AVX2/g16/l701.exe)
 ... and contract with generalized density number  0.
 Compute integral first derivatives.
 R6Disp: Adding Grimme-D2 dispersion energy 1st derivatives to the gradient.
   1 Symmetry operations used in ECPInt.
 ECPInt:  NShTT=    4560 NPrTT=   14509 LenC2=    4376 LenP2D=   11343.
 LDataN:  DoStor=T MaxTD1= 8 Len=  415
 Leave Link  701 at Mon Feb 24 14:32:41 2025, MaxMem=  2097152000 cpu:              14.5 elap:               3.7
 (Enter /nvme/h/buildsets/eb_nepheli/software/Gaussian/16.C.01-AVX2/g16/l702.exe)
 L702 exits ... SP integral derivatives will be done elsewhere.
 Leave Link  702 at Mon Feb 24 14:32:41 2025, MaxMem=  2097152000 cpu:               0.0 elap:               0.0
 (Enter /nvme/h/buildsets/eb_nepheli/software/Gaussian/16.C.01-AVX2/g16/l703.exe)
 Integral derivatives from FoFJK, PRISM(SPDF).
 Compute integral first derivatives, UseDBF=F ICtDFT=           0.
 Calling FoFJK, ICntrl=      2127 FMM=F ISym2X=0 I1Cent= 0 IOpClX= 1 NMat=1 NMatS=1 NMatT=0.
 FoFJK:  IHMeth= 1 ICntrl=    2127 DoSepK=T KAlg= 0 I1Cent=           0 FoldK=F
 IRaf=         1 NMat=       1 IRICut=       1 DoRegI=T DoRafI=F ISym2E= 0 IDoP0=0 IntGTp=1.
 FoFCou: FMM=F IPFlag=           0 FMFlag=      100000 FMFlg1=         800
         NFxFlg=           0 DoJE=F BraDBF=F KetDBF=F FulRan=T
         wScrn=  0.000000 ICntrl=      2527 IOpCl=  0 I1Cent=           0 NGrid=           0
         NMat0=    1 NMatS0=      1 NMatT0=    0 NMatD0=    1 NMtDS0=    0 NMtDT0=    0
 Symmetry not used in FoFCou.
 Defaulting to unpruned grid for atomic number  47.
 Defaulting to unpruned grid for atomic number  47.
 Defaulting to unpruned grid for atomic number  47.
 Defaulting to unpruned grid for atomic number  47.
 Leave Link  703 at Mon Feb 24 14:33:11 2025, MaxMem=  2097152000 cpu:             118.5 elap:              29.8
 (Enter /nvme/h/buildsets/eb_nepheli/software/Gaussian/16.C.01-AVX2/g16/l716.exe)
 Dipole        =-1.56318017D-01-1.04616458D-04 8.81199692D-02
 ***** Axes restored to original set *****
 -------------------------------------------------------------------
 Center     Atomic                   Forces (Hartrees/Bohr)
 Number     Number              X              Y              Z
 -------------------------------------------------------------------
      1       47          -0.000051043    0.000021809   -0.000006494
      2       47           0.000003951    0.000014158   -0.000040180
      3       47           0.000024026    0.000009877   -0.000036040
      4       47           0.000004400   -0.000002000   -0.000017424
      5       47          -0.000020465   -0.000072731    0.000068054
      6       47           0.000043619    0.000017554    0.000022697
      7       47           0.000005132   -0.000032917   -0.000027536
      8        6          -0.000003757    0.000027501    0.000006944
      9        8           0.000001918   -0.000010720    0.000003473
     10        8          -0.000007780    0.000027470    0.000026506
 -------------------------------------------------------------------
 Cartesian Forces:  Max     0.000072731 RMS     0.000028668
 Z-matrix is all fixed cartesians, so copy forces.
 Force constants in Cartesian coordinates: 
                1             2             3             4             5 
      1  0.207838D+00
      2 -0.105771D-02  0.967889D-01
      3  0.403355D-01  0.180388D-02  0.180910D+00
      4 -0.336187D-01  0.962495D-04 -0.268785D-01  0.207820D+00
      5  0.825640D-03 -0.775179D-02 -0.552021D-03 -0.177245D-02  0.964525D-01
      6  0.268935D-01 -0.115950D-02 -0.785865D-01 -0.401859D-01  0.135735D-02
      7  0.323003D-02 -0.412151D-04 -0.938093D-02 -0.758986D-01 -0.339625D-03
      8 -0.417345D-04  0.108589D-01 -0.189236D-03  0.657036D-03 -0.788482D-02
      9 -0.100484D-01 -0.195212D-03 -0.310115D-02  0.134049D-01 -0.580962D-03
     10 -0.453657D-01  0.428643D-01 -0.196020D-01 -0.463454D-01  0.440988D-01
     11 -0.126245D-02 -0.505785D-01 -0.124389D-03 -0.468856D-03 -0.522027D-01
     12 -0.182173D-01  0.318795D-01 -0.345661D-01  0.187392D-01 -0.314989D-01
     13 -0.485370D-01 -0.446958D-01 -0.185299D-01 -0.470500D-01 -0.431927D-01
     14  0.111929D-03 -0.521979D-01  0.924821D-03  0.115292D-02 -0.503107D-01
     15 -0.198005D-01 -0.317979D-01 -0.346888D-01  0.192008D-01  0.320267D-01
     16 -0.825611D-02 -0.152970D-03 -0.631586D-02 -0.817416D-02  0.155220D-03
     17  0.425015D-04  0.108516D-01  0.224317D-03  0.158658D-03  0.108574D-01
     18 -0.569186D-02  0.160779D-03  0.832790D-02  0.570781D-02 -0.131991D-03
     19 -0.752901D-01  0.298713D-02  0.403718D-01  0.326682D-02  0.225077D-03
     20  0.138183D-02 -0.797120D-02 -0.208737D-02  0.176441D-03  0.108401D-01
     21 -0.134709D-01 -0.691565D-03 -0.382950D-01  0.100118D-01 -0.620145D-03
     22  0.000000D+00  0.000000D+00  0.000000D+00  0.000000D+00  0.000000D+00
     23  0.000000D+00  0.000000D+00  0.000000D+00  0.000000D+00  0.000000D+00
     24  0.000000D+00  0.000000D+00  0.000000D+00  0.000000D+00  0.000000D+00
     25  0.000000D+00  0.000000D+00  0.000000D+00  0.000000D+00  0.000000D+00
     26  0.000000D+00  0.000000D+00  0.000000D+00  0.000000D+00  0.000000D+00
     27  0.000000D+00  0.000000D+00  0.000000D+00  0.000000D+00  0.000000D+00
     28  0.000000D+00  0.000000D+00  0.000000D+00  0.000000D+00  0.000000D+00
     29  0.000000D+00  0.000000D+00  0.000000D+00  0.000000D+00  0.000000D+00
     30  0.000000D+00  0.000000D+00  0.000000D+00  0.000000D+00  0.000000D+00
                6             7             8             9            10 
      6  0.180722D+00
      7 -0.405293D-01  0.160365D+00
      8 -0.238852D-03  0.593927D-03  0.964654D-01
      9 -0.384212D-01  0.254125D-01  0.209617D-02  0.228256D+00
     10  0.181933D-01 -0.245678D-01 -0.172700D-01 -0.113743D-01  0.218611D+00
     11  0.998198D-03 -0.223658D-03 -0.521878D-01  0.108596D-02  0.961384D-03
     12 -0.339769D-01 -0.119524D-01 -0.513708D-01 -0.557925D-01 -0.127325D-02
     13  0.199073D-01 -0.243200D-01  0.161972D-01 -0.121907D-01 -0.174726D-01
     14 -0.307130D-03 -0.764789D-03 -0.503349D-01 -0.911206D-03 -0.424953D-03
     15 -0.349827D-01 -0.114579D-01  0.512817D-01 -0.577037D-01  0.273114D-04
     16  0.637470D-02 -0.490960D-01 -0.318259D-03 -0.552024D-02 -0.596332D-01
     17 -0.137626D-03  0.617189D-03 -0.775543D-02 -0.980369D-03 -0.533998D-01
     18  0.830617D-02  0.482558D-01 -0.949086D-03 -0.631553D-01  0.145303D-02
     19  0.934634D-02  0.102874D-01  0.181750D-03  0.316237D-03 -0.252259D-01
     20 -0.512449D-03  0.158173D-03  0.108386D-01 -0.514377D-03 -0.168298D-01
     21 -0.306047D-02 -0.347796D-03 -0.629840D-03 -0.100823D-01  0.125758D-01
     22  0.000000D+00  0.000000D+00  0.000000D+00  0.000000D+00  0.000000D+00
     23  0.000000D+00  0.000000D+00  0.000000D+00  0.000000D+00  0.000000D+00
     24  0.000000D+00  0.000000D+00  0.000000D+00  0.000000D+00  0.000000D+00
     25  0.000000D+00  0.000000D+00  0.000000D+00  0.000000D+00  0.000000D+00
     26  0.000000D+00  0.000000D+00  0.000000D+00  0.000000D+00  0.000000D+00
     27  0.000000D+00  0.000000D+00  0.000000D+00  0.000000D+00  0.000000D+00
     28  0.000000D+00  0.000000D+00  0.000000D+00  0.000000D+00  0.000000D+00
     29  0.000000D+00  0.000000D+00  0.000000D+00  0.000000D+00  0.000000D+00
     30  0.000000D+00  0.000000D+00  0.000000D+00  0.000000D+00  0.000000D+00
               11            12            13            14            15 
     11  0.329101D+00
     12 -0.284579D-02  0.222139D+00
     13 -0.436617D-03  0.273817D-04  0.222517D+00
     14 -0.729946D-01  0.125813D-02  0.102524D-02  0.329354D+00
     15  0.128314D-02 -0.175429D-01  0.122807D-02 -0.305102D-02  0.219131D+00
     16  0.110742D-02  0.805012D-04 -0.619331D-01 -0.633917D-03  0.397765D-04
     17 -0.505341D-01  0.677325D-03  0.548472D-01 -0.522191D-01  0.450491D-03
     18  0.631593D-03 -0.203077D-01 -0.122034D-02  0.678894D-03 -0.212368D-01
     19  0.322787D-03  0.125958D-01 -0.232047D-01 -0.466429D-03  0.107625D-01
     20 -0.506033D-01  0.519006D-01  0.162555D-01 -0.512965D-01 -0.501931D-01
     21 -0.102871D-02 -0.599532D-01  0.107782D-01  0.140751D-02 -0.529764D-01
     22  0.000000D+00  0.000000D+00  0.000000D+00  0.000000D+00  0.000000D+00
     23  0.000000D+00  0.000000D+00  0.000000D+00  0.000000D+00  0.000000D+00
     24  0.000000D+00  0.000000D+00  0.000000D+00  0.000000D+00  0.000000D+00
     25  0.000000D+00  0.000000D+00  0.000000D+00  0.000000D+00  0.000000D+00
     26  0.000000D+00  0.000000D+00  0.000000D+00  0.000000D+00  0.000000D+00
     27  0.000000D+00  0.000000D+00  0.000000D+00  0.000000D+00  0.000000D+00
     28  0.000000D+00  0.000000D+00  0.000000D+00  0.000000D+00  0.000000D+00
     29  0.000000D+00  0.000000D+00  0.000000D+00  0.000000D+00  0.000000D+00
     30  0.000000D+00  0.000000D+00  0.000000D+00  0.000000D+00  0.000000D+00
               16            17            18            19            20 
     16  0.236891D+00
     17 -0.286668D-03  0.967713D-01
     18  0.197425D-03  0.207050D-02  0.151881D+00
     19 -0.497987D-01 -0.197906D-02 -0.487019D-01  0.159965D+00
     20  0.129180D-03 -0.797165D-02 -0.246069D-02 -0.127126D-02  0.961639D-01
     21  0.514370D-02 -0.230464D-02 -0.638153D-01 -0.246908D-01  0.386738D-02
     22  0.000000D+00  0.000000D+00  0.000000D+00  0.000000D+00  0.000000D+00
     23  0.000000D+00  0.000000D+00  0.000000D+00  0.000000D+00  0.000000D+00
     24  0.000000D+00  0.000000D+00  0.000000D+00  0.000000D+00  0.000000D+00
     25  0.000000D+00  0.000000D+00  0.000000D+00  0.000000D+00  0.000000D+00
     26  0.000000D+00  0.000000D+00  0.000000D+00  0.000000D+00  0.000000D+00
     27  0.000000D+00  0.000000D+00  0.000000D+00  0.000000D+00  0.000000D+00
     28  0.000000D+00  0.000000D+00  0.000000D+00  0.000000D+00  0.000000D+00
     29  0.000000D+00  0.000000D+00  0.000000D+00  0.000000D+00  0.000000D+00
     30  0.000000D+00  0.000000D+00  0.000000D+00  0.000000D+00  0.000000D+00
               21            22            23            24            25 
     21  0.228183D+00
     22  0.000000D+00  0.394967D+00
     23  0.000000D+00 -0.360287D+00  0.121512D+01
     24  0.000000D+00 -0.380090D+00  0.111001D+01  0.143752D+01
     25  0.000000D+00 -0.197803D+00  0.181489D+00  0.190921D+00  0.134287D+00
     26  0.000000D+00  0.181539D+00 -0.613157D+00 -0.559293D+00 -0.189668D+00
     27  0.000000D+00  0.190921D+00 -0.559138D+00 -0.721491D+00 -0.204187D+00
     28  0.000000D+00 -0.197164D+00  0.178799D+00  0.189169D+00  0.635156D-01
     29  0.000000D+00  0.178748D+00 -0.601964D+00 -0.550720D+00  0.817931D-02
     30  0.000000D+00  0.189168D+00 -0.550875D+00 -0.716033D+00  0.132659D-01
               26            27            28            29            30 
     26  0.583276D+00
     27  0.583667D+00  0.694997D+00
     28  0.812849D-02  0.132652D-01  0.133648D+00
     29  0.298807D-01 -0.245288D-01 -0.186927D+00  0.572083D+00
     30 -0.243739D-01  0.264941D-01 -0.202434D+00  0.575249D+00  0.689539D+00
 Leave Link  716 at Mon Feb 24 14:33:12 2025, MaxMem=  2097152000 cpu:               0.1 elap:               0.0
 (Enter /nvme/h/buildsets/eb_nepheli/software/Gaussian/16.C.01-AVX2/g16/l103.exe)

 GradGradGradGradGradGradGradGradGradGradGradGradGradGradGradGradGradGrad
 Berny optimization.
 Search for a local minimum.
 Step number   1 out of a maximum of    2
 All quantities printed in internal units (Hartrees-Bohrs-Radians)
 Second derivative matrix not updated -- first step.
 ITU=  0
     Eigenvalues ---    0.00000   0.00000   0.00000   0.00329   0.00538
     Eigenvalues ---    0.11574   0.11581   0.19186   0.19365   0.20858
     Eigenvalues ---    0.20881   0.21683   0.30134   0.30171   0.31246
     Eigenvalues ---    0.31962   0.31966   0.34514   0.34581   0.35885
     Eigenvalues ---    0.40241   0.40571   1.28395   3.84248
 Eigenvalue     1 is   4.44D-16 Eigenvector:
                          Z10       Y10       Y9        Z8        X10
   1                    0.62109  -0.57049   0.32922   0.25158  -0.19828
                          Y8        Z9        X8        Z6        Z7
   1                   -0.11953  -0.11844  -0.08069  -0.06679  -0.06679
 Eigenvalue     2 is   6.66D-16 Eigenvector:
                          Y9        Z9        Y8        Z8        X9
   1                    0.63552  -0.48419   0.37198  -0.26688   0.15394
                          Y10       Y1        Y2        Y7        Y4
   1                    0.10713  -0.09870  -0.09870  -0.09870  -0.09870
 Eigenvalue     3 is   2.41D-07 Eigenvector:
                          X10       X9        Z10       Z9        X7
   1                    0.73469  -0.54117   0.23650  -0.17492  -0.13476
                          Z6        X8        X1        Z2        Z1
   1                   -0.12239   0.09660  -0.09293   0.08424   0.08415
 Angle between quadratic step and forces=  86.84 degrees.
 Linear search not attempted -- first point.
 B after Tr=    -0.000404   -0.001547    0.001271
         Rot=    1.000000    0.000022    0.000001    0.000006 Ang=   0.00 deg.
 Variable       Old X    -DE/DX   Delta X   Delta X   Delta X     New X
                                 (Linear)    (Quad)   (Total)
    X1        0.15099  -0.00005   0.00000  -0.00111  -0.00151   0.14948
    Y1       -0.04716   0.00002   0.00000  -0.00403  -0.00557  -0.05272
    Z1        0.14418  -0.00001   0.00000   0.00277   0.00404   0.14822
    X2        0.14806   0.00000   0.00000  -0.00092  -0.00133   0.14673
    Y2        0.01806   0.00001   0.00000  -0.00220  -0.00351   0.01455
    Z2        5.50289  -0.00004   0.00000   0.00261   0.00388   5.50677
    X3        5.22261   0.00002   0.00000  -0.00077  -0.00118   5.22142
    Y3        0.01623   0.00001   0.00000  -0.00216  -0.00346   0.01278
    Z3        7.14645  -0.00004   0.00000   0.00266   0.00394   7.15039
    X4        3.79996   0.00000   0.00000  -0.00117  -0.00162   3.79835
    Y4       -2.97980  -0.00000   0.00000  -0.00359  -0.00506  -2.98486
    Z4        2.88071  -0.00002   0.00000   0.00373   0.00514   2.88585
    X5        3.84087  -0.00002   0.00000  -0.00067  -0.00104   3.83983
    Y5        2.85494  -0.00007   0.00000  -0.00381  -0.00528   2.84966
    Z5        2.76062   0.00007   0.00000   0.00202   0.00317   2.76379
    X6        8.36266   0.00004   0.00000  -0.00071  -0.00112   8.36154
    Y6       -0.04995   0.00002   0.00000  -0.00394  -0.00547  -0.05541
    Z6        2.80476   0.00002   0.00000   0.00291   0.00419   2.80895
    X7        5.22522   0.00001   0.00000  -0.00090  -0.00131   5.22391
    Y7       -0.24077  -0.00003   0.00000  -0.00558  -0.00725  -0.24803
    Z7       -1.51399  -0.00003   0.00000   0.00281   0.00410  -1.50989
    X8        5.68448  -0.00000   0.00000   0.00337   0.00304   5.68752
    Y8        6.17393   0.00003   0.00000   0.01364   0.01190   6.18583
    Z8       -3.02683   0.00001   0.00000  -0.01052  -0.00951  -3.03634
    X9        5.17267   0.00000   0.00000   0.00362   0.00330   5.17597
    Y9        7.60557  -0.00001   0.00000   0.01406   0.01238   7.61796
    Z9       -1.45349   0.00000   0.00000  -0.01084  -0.00990  -1.46339
   X10        6.19881  -0.00001   0.00000   0.00311   0.00277   6.20157
   Y10        4.74430   0.00003   0.00000   0.01313   0.01131   4.75561
   Z10       -4.60793   0.00003   0.00000  -0.01012  -0.00905  -4.61698
         Item               Value     Threshold  Converged?
 Maximum Force            0.000073     0.000450     YES
 RMS     Force            0.000029     0.000300     YES
 Maximum Displacement     0.012385     0.001800     NO 
 RMS     Displacement     0.005893     0.001200     NO 
 Predicted change in Energy=-1.560635D-07
 GradGradGradGradGradGradGradGradGradGradGradGradGradGradGradGradGradGrad

 Leave Link  103 at Mon Feb 24 14:33:12 2025, MaxMem=  2097152000 cpu:               0.2 elap:               0.1
 (Enter /nvme/h/buildsets/eb_nepheli/software/Gaussian/16.C.01-AVX2/g16/l9999.exe)
 Unable to Open any file for archive entry.
 1\1\GINC-NE04\Force\UwB97XD\def2SVP\C1Ag7O2(2)\NPATSALIDIS\24-Feb-2025
 \0\\#p wb97xd/def2SVP scf(xqc) scfcyc=999 force\\Template file\\0,2\Ag
 ,0.079903,-0.024954,0.076295\Ag,0.07835,0.009556,2.912006\Ag,2.763684,
 0.008591,3.781741\Ag,2.010854,-1.576844,1.524404\Ag,2.032502,1.510768,
 1.460855\Ag,4.425328,-0.026431,1.484213\Ag,2.765066,-0.127412,-0.80116
 9\C,3.008095,3.267105,-1.601729\O,2.737259,4.024695,-0.769155\O,3.2802
 68,2.510576,-2.438413\\Version=ES64L-G16RevC.01\State=2-A\HF=-1217.562
 8071\S2=0.754679\S2-1=0.\S2A=0.750008\RMSD=4.464e-09\RMSF=2.867e-05\Di
 pole=0.0351091,0.1372429,-0.1101462\Quadrupole=3.0350522,-5.297849,2.2
 627968,0.6828971,0.2854683,-2.1277608\PG=C01 [X(C1Ag7O2)]\\@
 The archive entry for this job was punched.


 BRING ME INTO THE COMPANY OF THOSE WHO SEEK TRUTH,
 AND DELIVER ME FROM THOSE WHO HAVE FOUND IT.
 Job cpu time:       0 days  0 hours 13 minutes 32.1 seconds.
 Elapsed time:       0 days  0 hours  3 minutes 24.9 seconds.
 File lengths (MBytes):  RWF=     74 Int=      0 D2E=      0 Chk=      6 Scr=      1
 Normal termination of Gaussian 16 at Mon Feb 24 14:33:12 2025.
