# generated from FF_develop kind of dataframes
# created within AL scheme step by Nikolaos Patsalidis [ EDFT = -99.430611, Upred =-99.445883 ]  
4 atoms

1 atom types

0.00 100.17 xlo xhi
0.00 126.55 ylo yhi
0.00 148.98 zlo zhi



Masses

1 107.868200


Atoms

1  1  1  0.000000   5.0075644249999996e+01   6.4601175249999997e+01   7.4509414999999990e+01   
2  2  1  0.000000   5.0092159249999995e+01   6.3280851249999998e+01   7.6923378999999997e+01   
3  3  1  0.000000   5.0076504249999999e+01   6.1946202249999999e+01   7.4501511999999991e+01   
4  4  1  0.000000   5.0085992249999997e+01   6.3271231250000000e+01   7.2025393999999991e+01   
