 Entering Gaussian System, Link 0=g16
 Initial command:
 /nvme/h/buildsets/eb_nepheli/software/Gaussian/16.C.01-AVX2/g16/l1.exe "/onyx/data/simea/nikolas/postDoc/Active-Learning-Package/Ag-tr/init_data/Ag17/Gau-83729.inp" -scrdir="/onyx/data/simea/nikolas/postDoc/Active-Learning-Package/Ag-tr/init_data/Ag17/"
 Entering Link 1 = /nvme/h/buildsets/eb_nepheli/software/Gaussian/16.C.01-AVX2/g16/l1.exe PID=     83730.
  
 Copyright (c) 1988-2019, Gaussian, Inc.  All Rights Reserved.
  
 This is part of the Gaussian(R) 16 program.  It is based on
 the Gaussian(R) 09 system (copyright 2009, Gaussian, Inc.),
 the Gaussian(R) 03 system (copyright 2003, Gaussian, Inc.),
 the Gaussian(R) 98 system (copyright 1998, Gaussian, Inc.),
 the Gaussian(R) 94 system (copyright 1995, Gaussian, Inc.),
 the Gaussian 92(TM) system (copyright 1992, Gaussian, Inc.),
 the Gaussian 90(TM) system (copyright 1990, Gaussian, Inc.),
 the Gaussian 88(TM) system (copyright 1988, Gaussian, Inc.),
 the Gaussian 86(TM) system (copyright 1986, Carnegie Mellon
 University), and the Gaussian 82(TM) system (copyright 1983,
 Carnegie Mellon University). Gaussian is a federally registered
 trademark of Gaussian, Inc.
  
 This software contains proprietary and confidential information,
 including trade secrets, belonging to Gaussian, Inc.
  
 This software is provided under written license and may be
 used, copied, transmitted, or stored only in accord with that
 written license.
  
 The following legend is applicable only to US Government
 contracts under FAR:
  
                    RESTRICTED RIGHTS LEGEND
  
 Use, reproduction and disclosure by the US Government is
 subject to restrictions as set forth in subparagraphs (a)
 and (c) of the Commercial Computer Software - Restricted
 Rights clause in FAR 52.227-19.
  
 Gaussian, Inc.
 340 Quinnipiac St., Bldg. 40, Wallingford CT 06492
  
  
 ---------------------------------------------------------------
 Warning -- This program may not be used in any manner that
 competes with the business of Gaussian, Inc. or will provide
 assistance to any competitor of Gaussian, Inc.  The licensee
 of this program is prohibited from giving any competitor of
 Gaussian, Inc. access to this program.  By using this program,
 the user acknowledges that Gaussian, Inc. is engaged in the
 business of creating and licensing software in the field of
 computational chemistry and represents and warrants to the
 licensee that it is not a competitor of Gaussian, Inc. and that
 it will not use this program in any manner prohibited above.
 ---------------------------------------------------------------
  

 Cite this work as:
 Gaussian 16, Revision C.01,
 M. J. Frisch, G. W. Trucks, H. B. Schlegel, G. E. Scuseria, 
 M. A. Robb, J. R. Cheeseman, G. Scalmani, V. Barone, 
 G. A. Petersson, H. Nakatsuji, X. Li, M. Caricato, A. V. Marenich, 
 J. Bloino, B. G. Janesko, R. Gomperts, B. Mennucci, H. P. Hratchian, 
 J. V. Ortiz, A. F. Izmaylov, J. L. Sonnenberg, D. Williams-Young, 
 F. Ding, F. Lipparini, F. Egidi, J. Goings, B. Peng, A. Petrone, 
 T. Henderson, D. Ranasinghe, V. G. Zakrzewski, J. Gao, N. Rega, 
 G. Zheng, W. Liang, M. Hada, M. Ehara, K. Toyota, R. Fukuda, 
 J. Hasegawa, M. Ishida, T. Nakajima, Y. Honda, O. Kitao, H. Nakai, 
 T. Vreven, K. Throssell, J. A. Montgomery, Jr., J. E. Peralta, 
 F. Ogliaro, M. J. Bearpark, J. J. Heyd, E. N. Brothers, K. N. Kudin, 
 V. N. Staroverov, T. A. Keith, R. Kobayashi, J. Normand, 
 K. Raghavachari, A. P. Rendell, J. C. Burant, S. S. Iyengar, 
 J. Tomasi, M. Cossi, J. M. Millam, M. Klene, C. Adamo, R. Cammi, 
 J. W. Ochterski, R. L. Martin, K. Morokuma, O. Farkas, 
 J. B. Foresman, and D. J. Fox, Gaussian, Inc., Wallingford CT, 2019.
 
 ******************************************
 Gaussian 16:  ES64L-G16RevC.01  3-Jul-2019
                 5-Mar-2025 
 ******************************************
 %nprocshared=4
 Will use up to    4 processors via shared memory.
 %mem=16000MB
 -------------------------------------------
 #p wb97xd/def2SVP scf(xqc) scfcyc=999 force
 -------------------------------------------
 1/10=7,30=1,38=1/1,3;
 2/12=2,17=6,18=5,40=1/2;
 3/5=43,7=101,11=2,25=1,30=1,71=1,74=-58/1,2,3;
 4//1;
 5/5=2,7=999,8=3,13=1,38=5/2,8;
 6/7=2,8=2,9=2,10=2,28=1/1;
 7/29=1/1,2,3,16;
 1/10=7,30=1/3;
 99//99;
 Leave Link    1 at Wed Mar  5 07:42:36 2025, MaxMem=  2097152000 cpu:               0.2 elap:               0.1
 (Enter /nvme/h/buildsets/eb_nepheli/software/Gaussian/16.C.01-AVX2/g16/l101.exe)
 -------------
 Template file
 -------------
 Symbolic Z-matrix:
 Charge =  0 Multiplicity = 2
 Ag                    2.31339   1.79599   1.58314 
 Ag                    0.91882   0.       0. 
 Ag                    0.72357   2.71796  -0.80564 
 Ag                   -1.64967  -1.03751   1.49587 
 Ag                   -0.68657   1.68886   1.6946 
 Ag                    0.83211   0.50308  -2.73213 
 Ag                    0.83211  -0.50308   2.73213 
 Ag                    3.21386  -1.07115   1.18326 
 Ag                   -3.32195   1.14969   0.86023 
 Ag                   -3.32195  -1.14969  -0.86023 
 Ag                   -1.88415  -3.51579   0.12233 
 Ag                    0.72357  -2.71796   0.80564 
 Ag                    3.21386   1.07115  -1.18327 
 Ag                   -1.88415   3.51579  -0.12234 
 Ag                   -1.64967   1.03751  -1.49588 
 Ag                    2.31339  -1.79599  -1.58313 
 Ag                   -0.68657  -1.68886  -1.6946 
 
 ITRead=  0  0  0  0  0  0  0  0  0  0  0  0  0  0  0  0  0
 MicOpt= -1 -1 -1 -1 -1 -1 -1 -1 -1 -1 -1 -1 -1 -1 -1 -1 -1
 NAtoms=     17 NQM=       17 NQMF=       0 NMMI=      0 NMMIF=      0
                NMic=       0 NMicF=      0.
                    Isotopes and Nuclear Properties:
 (Nuclear quadrupole moments (NQMom) in fm**2, nuclear magnetic moments (NMagM)
  in nuclear magnetons)

  Atom         1           2           3           4           5           6           7           8           9          10
 IAtWgt=         107         107         107         107         107         107         107         107         107         107
 AtmWgt= 106.9050900 106.9050900 106.9050900 106.9050900 106.9050900 106.9050900 106.9050900 106.9050900 106.9050900 106.9050900
 NucSpn=           1           1           1           1           1           1           1           1           1           1
 AtZEff=  -0.0000000  -0.0000000  -0.0000000  -0.0000000  -0.0000000  -0.0000000  -0.0000000  -0.0000000  -0.0000000  -0.0000000
 NQMom=    0.0000000   0.0000000   0.0000000   0.0000000   0.0000000   0.0000000   0.0000000   0.0000000   0.0000000   0.0000000
 NMagM=   -0.1135700  -0.1135700  -0.1135700  -0.1135700  -0.1135700  -0.1135700  -0.1135700  -0.1135700  -0.1135700  -0.1135700
 AtZNuc=  47.0000000  47.0000000  47.0000000  47.0000000  47.0000000  47.0000000  47.0000000  47.0000000  47.0000000  47.0000000

  Atom        11          12          13          14          15          16          17
 IAtWgt=         107         107         107         107         107         107         107
 AtmWgt= 106.9050900 106.9050900 106.9050900 106.9050900 106.9050900 106.9050900 106.9050900
 NucSpn=           1           1           1           1           1           1           1
 AtZEff=  -0.0000000  -0.0000000  -0.0000000  -0.0000000  -0.0000000  -0.0000000  -0.0000000
 NQMom=    0.0000000   0.0000000   0.0000000   0.0000000   0.0000000   0.0000000   0.0000000
 NMagM=   -0.1135700  -0.1135700  -0.1135700  -0.1135700  -0.1135700  -0.1135700  -0.1135700
 AtZNuc=  47.0000000  47.0000000  47.0000000  47.0000000  47.0000000  47.0000000  47.0000000
 Leave Link  101 at Wed Mar  5 07:42:37 2025, MaxMem=  2097152000 cpu:               0.2 elap:               0.1
 (Enter /nvme/h/buildsets/eb_nepheli/software/Gaussian/16.C.01-AVX2/g16/l103.exe)

 GradGradGradGradGradGradGradGradGradGradGradGradGradGradGradGradGradGrad
 Berny optimization.
 Initialization pass.
 Trust Radius=3.00D-01 FncErr=1.00D-07 GrdErr=1.00D-07 EigMax=2.50D+02 EigMin=1.00D-04
 Number of steps in this run=      2 maximum allowed number of steps=      2.
 GradGradGradGradGradGradGradGradGradGradGradGradGradGradGradGradGradGrad

 Leave Link  103 at Wed Mar  5 07:42:37 2025, MaxMem=  2097152000 cpu:               0.0 elap:               0.0
 (Enter /nvme/h/buildsets/eb_nepheli/software/Gaussian/16.C.01-AVX2/g16/l202.exe)
                          Input orientation:                          
 ---------------------------------------------------------------------
 Center     Atomic      Atomic             Coordinates (Angstroms)
 Number     Number       Type             X           Y           Z
 ---------------------------------------------------------------------
      1         47           0        2.313394    1.795987    1.583135
      2         47           0        0.918815    0.000001   -0.000002
      3         47           0        0.723574    2.717958   -0.805638
      4         47           0       -1.649672   -1.037511    1.495874
      5         47           0       -0.686565    1.688864    1.694604
      6         47           0        0.832108    0.503075   -2.732129
      7         47           0        0.832108   -0.503076    2.732127
      8         47           0        3.213859   -1.071153    1.183264
      9         47           0       -3.321953    1.149692    0.860225
     10         47           0       -3.321954   -1.149689   -0.860227
     11         47           0       -1.884153   -3.515793    0.122334
     12         47           0        0.723571   -2.717958    0.805641
     13         47           0        3.213860    1.071151   -1.183268
     14         47           0       -1.884150    3.515793   -0.122335
     15         47           0       -1.649671    1.037513   -1.495875
     16         47           0        2.313393   -1.795990   -1.583133
     17         47           0       -0.686566   -1.688864   -1.694600
 ---------------------------------------------------------------------
                    Distance matrix (angstroms):
                    1          2          3          4          5
     1  Ag   0.000000
     2  Ag   2.770693   0.000000
     3  Ag   3.013933   2.841559   0.000000
     4  Ag   4.872599   3.148206   5.003279   0.000000
     5  Ag   3.003940   2.881179   3.049383   2.898308   0.000000
     6  Ag   4.742081   2.779410   2.937491   5.138934   4.827880
     7  Ag   2.966493   2.779412   4.785668   2.823681   2.861367
     8  Ag   3.031703   2.795481   4.951223   4.873683   4.805462
     9  Ag   5.718167   4.477264   4.647671   2.825673   2.816410
    10  Ag   6.812061   4.477264   5.597139   2.891422   4.640024
    11  Ag   6.925919   4.498044   6.820632   2.843145   5.567289
    12  Ag   4.848477   2.841563   5.669692   2.988747   4.711562
    13  Ag   2.998201   2.795481   3.009336   5.939546   4.886413
    14  Ag   4.846208   4.498041   2.811346   4.837991   2.841328
    15  Ag   5.075576   3.148204   2.988748   3.640918   3.395731
    16  Ag   4.788272   2.770692   4.848479   5.075575   5.646903
    17  Ag   5.646901   2.881176   4.711563   3.395726   4.784950
                    6          7          8          9         10
     6  Ag   0.000000
     7  Ag   5.556117   0.000000
     8  Ag   4.845744   2.897314   0.000000
     9  Ag   5.529859   4.846842   6.910380   0.000000
    10  Ag   4.846842   5.529860   6.848275   2.871778   0.000000
    11  Ag   5.628262   4.823438   5.752527   4.937459   2.937881
    12  Ag   4.785671   2.937487   3.009336   5.597139   4.647672
    13  Ag   2.897313   4.845746   3.192169   6.848276   6.910380
    14  Ag   4.823438   5.628261   6.981000   2.937879   4.937458
    15  Ag   2.823681   5.138934   5.939544   2.891422   2.825674
    16  Ag   2.966496   4.742078   2.998196   6.812060   5.718167
    17  Ag   2.861369   4.827875   4.886408   4.640021   2.816409
                   11         12         13         14         15
    11  Ag   0.000000
    12  Ag   2.811347   0.000000
    13  Ag   6.981002   4.951227   0.000000
    14  Ag   7.035841   6.820630   5.752526   0.000000
    15  Ag   4.837993   5.003281   4.873683   2.843143   0.000000
    16  Ag   4.846208   3.013934   3.031704   6.925918   4.872600
    17  Ag   2.841326   3.049381   4.805462   5.567287   2.898309
                   16         17
    16  Ag   0.000000
    17  Ag   3.003940   0.000000
 Stoichiometry    Ag17(2)
 Framework group  C1[X(Ag17)]
 Deg. of freedom    45
 Full point group                 C1      NOp   1
 Largest Abelian subgroup         C1      NOp   1
 Largest concise Abelian subgroup C1      NOp   1
                         Standard orientation:                         
 ---------------------------------------------------------------------
 Center     Atomic      Atomic             Coordinates (Angstroms)
 Number     Number       Type             X           Y           Z
 ---------------------------------------------------------------------
      1         47           0       -2.313394   -1.779786    1.601327
      2         47           0       -0.918815   -0.000001   -0.000002
      3         47           0       -0.723574   -2.726015   -0.777942
      4         47           0        1.649672    1.052678    1.485240
      5         47           0        0.686565   -1.671534    1.711700
      6         47           0       -0.832108   -0.530848   -2.726869
      7         47           0       -0.832108    0.530848    2.726867
      8         47           0       -3.213859    1.083137    1.172305
      9         47           0        3.321953   -1.140880    0.871878
     10         47           0        3.321954    1.140877   -0.871880
     11         47           0        1.884153    3.516856    0.086556
     12         47           0       -0.723571    2.726014    0.777945
     13         47           0       -3.213860   -1.083135   -1.172308
     14         47           0        1.884150   -3.516856   -0.086557
     15         47           0        1.649671   -1.052679   -1.485241
     16         47           0       -2.313393    1.779789   -1.601324
     17         47           0        0.686566    1.671535   -1.711696
 ---------------------------------------------------------------------
 Rotational constants (GHZ):           0.0497524           0.0446146           0.0365201
 Leave Link  202 at Wed Mar  5 07:42:37 2025, MaxMem=  2097152000 cpu:               0.0 elap:               0.0
 (Enter /nvme/h/buildsets/eb_nepheli/software/Gaussian/16.C.01-AVX2/g16/l301.exe)
 Standard basis: def2SVP (5D, 7F)
 Ernie: Thresh=  0.10000D-02 Tol=  0.10000D-05 Strict=F.
 There are   612 symmetry adapted cartesian basis functions of A   symmetry.
 There are   527 symmetry adapted basis functions of A   symmetry.
   527 basis functions,  1105 primitive gaussians,   612 cartesian basis functions
   162 alpha electrons      161 beta electrons
       nuclear repulsion energy      6579.6800501761 Hartrees.
 IExCor= 4639 DFT=T Ex+Corr=wB97XD ExCW=0 ScaHFX=  1.000000
 ScaDFX=  1.000000  1.000000  1.000000  1.000000 ScalE2=  1.000000  1.000000
 IRadAn=      5 IRanWt=     -1 IRanGd=            0 ICorTp=0 IEmpDi=121
 HFx  wShort=  0.000000 wLong=  0.200000 cFull=  0.222036 cShort=  0.000000 cLong=  0.777964
 DFx  wShort=  0.000000 wLong=  0.200000 cFull=  0.000000 cShort=  0.000000 cLong=  1.000000
 NAtoms=   17 NActive=   17 NUniq=   17 SFac= 1.00D+00 NAtFMM=   60 NAOKFM=F Big=F
 Integral buffers will be    131072 words long.
 Raffenetti 2 integral format.
 Two-electron integral symmetry is turned on.
 R6Disp:  Grimme-D2 Dispersion energy=       -0.0773146883 Hartrees.
 Nuclear repulsion after empirical dispersion term =     6579.6027354878 Hartrees.
 Leave Link  301 at Wed Mar  5 07:42:37 2025, MaxMem=  2097152000 cpu:               0.1 elap:               0.0
 (Enter /nvme/h/buildsets/eb_nepheli/software/Gaussian/16.C.01-AVX2/g16/l302.exe)
 NPDir=0 NMtPBC=     1 NCelOv=     1 NCel=       1 NClECP=     1 NCelD=      1
         NCelK=      1 NCelE2=     1 NClLst=     1 CellRange=     0.0.
 One-electron integrals computed using PRISM.
 One-electron integral symmetry used in STVInt
   1 Symmetry operations used in ECPInt.
 ECPInt:  NShTT=   17578 NPrTT=   52581 LenC2=   16685 LenP2D=   40526.
 LDataN:  DoStor=T MaxTD1= 7 Len=  274
 NBasis=   527 RedAO= T EigKep=  7.08D-05  NBF=   527
 NBsUse=   527 1.00D-06 EigRej= -1.00D+00 NBFU=   527
 Precomputing XC quadrature grid using
 IXCGrd= 4 IRadAn=           5 IRanWt=          -1 IRanGd=           0 AccXCQ= 0.00D+00.
 Defaulting to unpruned grid for atomic number  47.
 Defaulting to unpruned grid for atomic number  47.
 Defaulting to unpruned grid for atomic number  47.
 Defaulting to unpruned grid for atomic number  47.
 Generated NRdTot=       0 NPtTot=           0 NUsed=           0 NTot=          32
 NSgBfM=   611   611   611   611   611 MxSgAt=    17 MxSgA2=    17.
 Leave Link  302 at Wed Mar  5 07:42:41 2025, MaxMem=  2097152000 cpu:              14.9 elap:               3.8
 (Enter /nvme/h/buildsets/eb_nepheli/software/Gaussian/16.C.01-AVX2/g16/l303.exe)
 DipDrv:  MaxL=1.
 Leave Link  303 at Wed Mar  5 07:42:41 2025, MaxMem=  2097152000 cpu:               0.1 elap:               0.1
 (Enter /nvme/h/buildsets/eb_nepheli/software/Gaussian/16.C.01-AVX2/g16/l401.exe)
 ExpMin= 3.75D-02 ExpMax= 9.09D+00 ExpMxC= 9.09D+00 IAcc=3 IRadAn=         5 AccDes= 0.00D+00
 Harris functional with IExCor= 4639 and IRadAn=       5 diagonalized for initial guess.
 HarFok:  IExCor= 4639 AccDes= 0.00D+00 IRadAn=         5 IDoV= 1 UseB2=F ITyADJ=14
 ICtDFT=  3500011 ScaDFX=  1.000000  1.000000  1.000000  1.000000
 Defaulting to unpruned grid for atomic number  47.
 FoFCou: FMM=F IPFlag=           0 FMFlag=      100000 FMFlg1=           0
         NFxFlg=           0 DoJE=T BraDBF=F KetDBF=T FulRan=T
         wScrn=  0.000000 ICntrl=       500 IOpCl=  0 I1Cent=   200000004 NGrid=           0
         NMat0=    1 NMatS0=      1 NMatT0=    0 NMatD0=    1 NMtDS0=    0 NMtDT0=    0
 Petite list used in FoFCou.
 Harris En= -2432.85160417295    
 JPrj=0 DoOrth=F DoCkMO=F.
 Initial guess <Sx>= 0.0000 <Sy>= 0.0000 <Sz>= 0.5000 <S**2>= 0.7500 S= 0.5000
 Leave Link  401 at Wed Mar  5 07:42:45 2025, MaxMem=  2097152000 cpu:              15.0 elap:               3.8
 (Enter /nvme/h/buildsets/eb_nepheli/software/Gaussian/16.C.01-AVX2/g16/l502.exe)
 Integral symmetry usage will be decided dynamically.
 UHF open shell SCF:
 Using DIIS extrapolation, IDIIS=  1040.
 NGot=  2097152000 LenX=  2096393498 LenY=  2096018342
 Requested convergence on RMS density matrix=1.00D-08 within 128 cycles.
 Requested convergence on MAX density matrix=1.00D-06.
 Requested convergence on             energy=1.00D-06.
 No special actions if energy rises.
 Fock matrices will be formed incrementally for  20 cycles.

 Cycle   1  Pass 1  IDiag  1:
 FoFJK:  IHMeth= 1 ICntrl=       0 DoSepK=T KAlg= 0 I1Cent=           0 FoldK=F
 IRaf=         1 NMat=       1 IRICut=       1 DoRegI=T DoRafI=F ISym2E= 0 IDoP0=0 IntGTp=1.
 FoFCou: FMM=F IPFlag=           0 FMFlag=      100000 FMFlg1=           0
         NFxFlg=           0 DoJE=T BraDBF=F KetDBF=F FulRan=T
         wScrn=  0.000000 ICntrl=       500 IOpCl=  0 I1Cent=           0 NGrid=           0
         NMat0=    1 NMatS0=      1 NMatT0=    0 NMatD0=    1 NMtDS0=    0 NMtDT0=    0
 Symmetry not used in FoFCou.
 Defaulting to unpruned grid for atomic number  47.
 Defaulting to unpruned grid for atomic number  47.
 Defaulting to unpruned grid for atomic number  47.
 Defaulting to unpruned grid for atomic number  47.
 E= -2476.59161337931    
 DIIS: error= 1.75D-01 at cycle   1 NSaved=   1.
 NSaved= 1 IEnMin= 1 EnMin= -2476.59161337931     IErMin= 1 ErrMin= 1.75D-01
 ErrMax= 1.75D-01  0.00D+00 EMaxC= 1.00D-01 BMatC= 1.10D+02 BMatP= 1.10D+02
 IDIUse=3 WtCom= 0.00D+00 WtEn= 1.00D+00
 Coeff-Com:  0.100D+01
 Coeff-En:   0.100D+01
 Coeff:      0.100D+01
 Gap=     0.328 Goal=   None    Shift=    0.000
 Gap=    -0.005 Goal=   None    Shift=    0.000
 GapD=   -0.005 DampG=0.250 DampE=0.125 DampFc=0.1250 IDamp=-1.
 Damping current iteration by 1.25D-01
 RMSDP=5.57D-02 MaxDP=1.18D+01              OVMax= 8.47D-01

 Cycle   2  Pass 1  IDiag  1:
 RMSU=  6.90D-03    CP:  9.81D-01
 E= -2481.94777575589     Delta-E=       -5.356162376582 Rises=F Damp=T
 DIIS: error= 1.30D-01 at cycle   2 NSaved=   2.
 NSaved= 2 IEnMin= 2 EnMin= -2481.94777575589     IErMin= 2 ErrMin= 1.30D-01
 ErrMax= 1.30D-01  0.00D+00 EMaxC= 1.00D-01 BMatC= 6.04D+01 BMatP= 1.10D+02
 IDIUse=3 WtCom= 0.00D+00 WtEn= 1.00D+00
 Coeff-Com: -0.274D+01 0.374D+01
 Coeff-En:   0.000D+00 0.100D+01
 Coeff:      0.000D+00 0.100D+01
 Gap=     0.082 Goal=   None    Shift=    0.000
 Gap=     0.053 Goal=   None    Shift=    0.000
 RMSDP=3.82D-02 MaxDP=4.47D+00 DE=-5.36D+00 OVMax= 1.29D-01

 Cycle   3  Pass 1  IDiag  1:
 RMSU=  2.38D-02    CP:  7.62D-01  3.00D+00
 E= -2489.97535969540     Delta-E=       -8.027583939511 Rises=F Damp=F
 DIIS: error= 9.44D-02 at cycle   3 NSaved=   3.
 NSaved= 3 IEnMin= 3 EnMin= -2489.97535969540     IErMin= 3 ErrMin= 9.44D-02
 ErrMax= 9.44D-02  0.00D+00 EMaxC= 1.00D-01 BMatC= 4.10D+01 BMatP= 6.04D+01
 IDIUse=3 WtCom= 5.59D-02 WtEn= 9.44D-01
 EnCoef did   100 forward-backward iterations
 Coeff-Com: -0.252D+01 0.348D+01 0.477D-01
 Coeff-En:   0.296D+00 0.352D-02 0.700D+00
 Coeff:      0.139D+00 0.198D+00 0.664D+00
 Gap=     0.142 Goal=   None    Shift=    0.000
 Gap=     0.119 Goal=   None    Shift=    0.000
 RMSDP=4.36D-02 MaxDP=8.13D+00 DE=-8.03D+00 OVMax= 5.65D-01

 Cycle   4  Pass 1  IDiag  1:
 RMSU=  1.88D-02    CP:  4.26D-01  7.99D-01  1.75D-01
 E= -2497.21173645278     Delta-E=       -7.236376757386 Rises=F Damp=F
 DIIS: error= 1.08D-01 at cycle   4 NSaved=   4.
 NSaved= 4 IEnMin= 4 EnMin= -2497.21173645278     IErMin= 3 ErrMin= 9.44D-02
 ErrMax= 1.08D-01  0.00D+00 EMaxC= 1.00D-01 BMatC= 1.44D+01 BMatP= 4.10D+01
 IDIUse=3 WtCom= 0.00D+00 WtEn= 1.00D+00
 Coeff-Com: -0.191D+01 0.258D+01 0.449D-01 0.282D+00
 Coeff-En:   0.000D+00 0.000D+00 0.110D+00 0.890D+00
 Coeff:      0.000D+00 0.000D+00 0.110D+00 0.890D+00
 Gap=     0.687 Goal=   None    Shift=    0.000
 Gap=     0.559 Goal=   None    Shift=    0.000
 RMSDP=2.88D-02 MaxDP=7.13D+00 DE=-7.24D+00 OVMax= 5.56D-01

 Cycle   5  Pass 1  IDiag  1:
 RMSU=  2.07D-02    CP:  5.49D-01  3.00D+00  6.53D-02  5.18D-01
 E= -2493.43963108751     Delta-E=        3.772105365271 Rises=F Damp=F
 DIIS: error= 7.78D-02 at cycle   5 NSaved=   5.
 NSaved= 5 IEnMin= 4 EnMin= -2497.21173645278     IErMin= 5 ErrMin= 7.78D-02
 ErrMax= 7.78D-02  0.00D+00 EMaxC= 1.00D-01 BMatC= 3.09D+01 BMatP= 1.44D+01
 IDIUse=2 WtCom= 0.00D+00 WtEn= 1.00D+00
 Coeff-En:   0.000D+00 0.000D+00 0.000D+00 0.676D+00 0.324D+00
 Coeff:      0.000D+00 0.000D+00 0.000D+00 0.676D+00 0.324D+00
 Gap=     0.203 Goal=   None    Shift=    0.000
 Gap=     0.208 Goal=   None    Shift=    0.000
 RMSDP=2.78D-02 MaxDP=9.49D+00 DE= 3.77D+00 OVMax= 4.60D-01

 Cycle   6  Pass 1  IDiag  1:
 RMSU=  9.91D-03    CP:  4.00D-01  8.95D-01  2.38D-01  8.03D-01  1.32D-01
 E= -2499.30862969394     Delta-E=       -5.868998606424 Rises=F Damp=F
 DIIS: error= 2.16D-02 at cycle   6 NSaved=   6.
 NSaved= 6 IEnMin= 6 EnMin= -2499.30862969394     IErMin= 6 ErrMin= 2.16D-02
 ErrMax= 2.16D-02  0.00D+00 EMaxC= 1.00D-01 BMatC= 1.62D+00 BMatP= 1.44D+01
 IDIUse=3 WtCom= 7.84D-01 WtEn= 2.16D-01
 Coeff-Com: -0.632D+00 0.856D+00-0.419D-01 0.160D+00-0.750D-01 0.733D+00
 Coeff-En:   0.000D+00 0.000D+00 0.000D+00 0.137D+00 0.000D+00 0.863D+00
 Coeff:     -0.496D+00 0.672D+00-0.328D-01 0.155D+00-0.588D-01 0.761D+00
 Gap=     0.140 Goal=   None    Shift=    0.000
 Gap=     0.120 Goal=   None    Shift=    0.000
 RMSDP=3.94D-03 MaxDP=3.86D-01 DE=-5.87D+00 OVMax= 9.16D-02

 Cycle   7  Pass 1  IDiag  1:
 RMSU=  2.96D-03    CP:  3.93D-01  7.69D-01  2.24D-01  8.50D-01  5.39D-02
                    CP:  8.45D-01
 E= -2499.56211451285     Delta-E=       -0.253484818912 Rises=F Damp=F
 DIIS: error= 8.89D-03 at cycle   7 NSaved=   7.
 NSaved= 7 IEnMin= 7 EnMin= -2499.56211451285     IErMin= 7 ErrMin= 8.89D-03
 ErrMax= 8.89D-03  0.00D+00 EMaxC= 1.00D-01 BMatC= 3.01D-01 BMatP= 1.62D+00
 IDIUse=3 WtCom= 9.11D-01 WtEn= 8.89D-02
 Coeff-Com: -0.185D+00 0.262D+00-0.568D-01 0.443D-01-0.471D-01 0.409D+00
 Coeff-Com:  0.574D+00
 Coeff-En:   0.000D+00 0.000D+00 0.000D+00 0.000D+00 0.000D+00 0.000D+00
 Coeff-En:   0.100D+01
 Coeff:     -0.168D+00 0.239D+00-0.517D-01 0.403D-01-0.429D-01 0.372D+00
 Coeff:      0.612D+00
 Gap=     0.138 Goal=   None    Shift=    0.000
 Gap=     0.131 Goal=   None    Shift=    0.000
 RMSDP=2.47D-03 MaxDP=2.11D-01 DE=-2.53D-01 OVMax= 6.19D-02

 Cycle   8  Pass 1  IDiag  1:
 RMSU=  2.03D-03    CP:  3.70D-01  7.09D-01  2.00D-01  8.61D-01  5.03D-02
                    CP:  8.44D-01  9.83D-01
 E= -2499.62301060555     Delta-E=       -0.060896092697 Rises=F Damp=F
 DIIS: error= 2.87D-03 at cycle   8 NSaved=   8.
 NSaved= 8 IEnMin= 8 EnMin= -2499.62301060555     IErMin= 8 ErrMin= 2.87D-03
 ErrMax= 2.87D-03  0.00D+00 EMaxC= 1.00D-01 BMatC= 4.49D-02 BMatP= 3.01D-01
 IDIUse=3 WtCom= 9.71D-01 WtEn= 2.87D-02
 Coeff-Com: -0.373D-01 0.579D-01-0.283D-01-0.220D-02-0.201D-02-0.438D-03
 Coeff-Com:  0.244D+00 0.769D+00
 Coeff-En:   0.000D+00 0.000D+00 0.000D+00 0.000D+00 0.000D+00 0.000D+00
 Coeff-En:   0.000D+00 0.100D+01
 Coeff:     -0.362D-01 0.562D-01-0.275D-01-0.213D-02-0.195D-02-0.426D-03
 Coeff:      0.237D+00 0.775D+00
 Gap=     0.141 Goal=   None    Shift=    0.000
 Gap=     0.136 Goal=   None    Shift=    0.000
 RMSDP=1.68D-03 MaxDP=1.82D-01 DE=-6.09D-02 OVMax= 3.76D-02

 Cycle   9  Pass 1  IDiag  1:
 RMSU=  9.30D-04    CP:  3.49D-01  6.88D-01  1.90D-01  8.71D-01  4.33D-02
                    CP:  8.34D-01  1.19D+00  1.27D+00
 E= -2499.63201812590     Delta-E=       -0.009007520353 Rises=F Damp=F
 DIIS: error= 1.72D-03 at cycle   9 NSaved=   9.
 NSaved= 9 IEnMin= 9 EnMin= -2499.63201812590     IErMin= 9 ErrMin= 1.72D-03
 ErrMax= 1.72D-03  0.00D+00 EMaxC= 1.00D-01 BMatC= 8.39D-03 BMatP= 4.49D-02
 IDIUse=3 WtCom= 9.83D-01 WtEn= 1.72D-02
 Coeff-Com: -0.577D-02 0.974D-02-0.721D-02-0.837D-02 0.821D-02-0.779D-01
 Coeff-Com: -0.713D-02 0.465D+00 0.624D+00
 Coeff-En:   0.000D+00 0.000D+00 0.000D+00 0.000D+00 0.000D+00 0.000D+00
 Coeff-En:   0.000D+00 0.000D+00 0.100D+01
 Coeff:     -0.567D-02 0.958D-02-0.709D-02-0.823D-02 0.807D-02-0.765D-01
 Coeff:     -0.700D-02 0.457D+00 0.630D+00
 Gap=     0.141 Goal=   None    Shift=    0.000
 Gap=     0.134 Goal=   None    Shift=    0.000
 RMSDP=4.59D-04 MaxDP=4.73D-02 DE=-9.01D-03 OVMax= 2.06D-02

 Cycle  10  Pass 1  IDiag  1:
 RMSU=  3.10D-04    CP:  3.46D-01  6.85D-01  1.88D-01  8.71D-01  4.43D-02
                    CP:  8.31D-01  1.20D+00  1.39D+00  9.01D-01
 E= -2499.63415568216     Delta-E=       -0.002137556257 Rises=F Damp=F
 DIIS: error= 3.77D-04 at cycle  10 NSaved=  10.
 NSaved=10 IEnMin=10 EnMin= -2499.63415568216     IErMin=10 ErrMin= 3.77D-04
 ErrMax= 3.77D-04  0.00D+00 EMaxC= 1.00D-01 BMatC= 7.82D-04 BMatP= 8.39D-03
 IDIUse=3 WtCom= 9.96D-01 WtEn= 3.77D-03
 Coeff-Com: -0.517D-02 0.700D-02-0.123D-02-0.368D-02 0.362D-02-0.292D-01
 Coeff-Com: -0.332D-01 0.123D+00 0.296D+00 0.642D+00
 Coeff-En:   0.000D+00 0.000D+00 0.000D+00 0.000D+00 0.000D+00 0.000D+00
 Coeff-En:   0.000D+00 0.000D+00 0.000D+00 0.100D+01
 Coeff:     -0.515D-02 0.697D-02-0.123D-02-0.367D-02 0.361D-02-0.291D-01
 Coeff:     -0.331D-01 0.123D+00 0.295D+00 0.644D+00
 Gap=     0.141 Goal=   None    Shift=    0.000
 Gap=     0.135 Goal=   None    Shift=    0.000
 RMSDP=1.49D-04 MaxDP=1.52D-02 DE=-2.14D-03 OVMax= 5.23D-03

 Cycle  11  Pass 1  IDiag  1:
 RMSU=  9.89D-05    CP:  3.44D-01  6.84D-01  1.88D-01  8.70D-01  4.55D-02
                    CP:  8.34D-01  1.20D+00  1.40D+00  9.65D-01  1.16D+00
 E= -2499.63438596033     Delta-E=       -0.000230278178 Rises=F Damp=F
 DIIS: error= 1.72D-04 at cycle  11 NSaved=  11.
 NSaved=11 IEnMin=11 EnMin= -2499.63438596033     IErMin=11 ErrMin= 1.72D-04
 ErrMax= 1.72D-04  0.00D+00 EMaxC= 1.00D-01 BMatC= 8.31D-05 BMatP= 7.82D-04
 IDIUse=3 WtCom= 9.98D-01 WtEn= 1.72D-03
 Coeff-Com:  0.213D-02-0.314D-02-0.155D-03 0.169D-03-0.448D-03 0.807D-02
 Coeff-Com: -0.714D-02-0.466D-01-0.361D-01 0.135D+00 0.948D+00
 Coeff-En:   0.000D+00 0.000D+00 0.000D+00 0.000D+00 0.000D+00 0.000D+00
 Coeff-En:   0.000D+00 0.000D+00 0.000D+00 0.000D+00 0.100D+01
 Coeff:      0.212D-02-0.314D-02-0.155D-03 0.168D-03-0.447D-03 0.806D-02
 Coeff:     -0.713D-02-0.466D-01-0.360D-01 0.135D+00 0.948D+00
 Gap=     0.141 Goal=   None    Shift=    0.000
 Gap=     0.135 Goal=   None    Shift=    0.000
 RMSDP=1.32D-04 MaxDP=1.62D-02 DE=-2.30D-04 OVMax= 7.38D-03

 Cycle  12  Pass 1  IDiag  1:
 RMSU=  4.09D-05    CP:  3.43D-01  6.82D-01  1.88D-01  8.70D-01  4.58D-02
                    CP:  8.34D-01  1.19D+00  1.41D+00  1.02D+00  1.41D+00
                    CP:  1.35D+00
 E= -2499.63444843445     Delta-E=       -0.000062474113 Rises=F Damp=F
 DIIS: error= 1.24D-04 at cycle  12 NSaved=  12.
 NSaved=12 IEnMin=12 EnMin= -2499.63444843445     IErMin=12 ErrMin= 1.24D-04
 ErrMax= 1.24D-04  0.00D+00 EMaxC= 1.00D-01 BMatC= 1.61D-05 BMatP= 8.31D-05
 IDIUse=3 WtCom= 9.99D-01 WtEn= 1.24D-03
 Coeff-Com: -0.330D-03 0.301D-03 0.305D-03 0.230D-03-0.264D-03 0.121D-02
 Coeff-Com:  0.645D-03-0.116D-01-0.212D-01-0.269D-01 0.217D+00 0.840D+00
 Coeff-En:   0.000D+00 0.000D+00 0.000D+00 0.000D+00 0.000D+00 0.000D+00
 Coeff-En:   0.000D+00 0.000D+00 0.000D+00 0.000D+00 0.000D+00 0.100D+01
 Coeff:     -0.330D-03 0.301D-03 0.305D-03 0.230D-03-0.264D-03 0.121D-02
 Coeff:      0.645D-03-0.115D-01-0.212D-01-0.269D-01 0.217D+00 0.841D+00
 Gap=     0.141 Goal=   None    Shift=    0.000
 Gap=     0.135 Goal=   None    Shift=    0.000
 RMSDP=4.65D-05 MaxDP=5.04D-03 DE=-6.25D-05 OVMax= 4.69D-03

 Cycle  13  Pass 1  IDiag  1:
 RMSU=  1.81D-05    CP:  3.43D-01  6.82D-01  1.89D-01  8.70D-01  4.60D-02
                    CP:  8.34D-01  1.19D+00  1.40D+00  1.03D+00  1.48D+00
                    CP:  1.58D+00  1.42D+00
 E= -2499.63446575945     Delta-E=       -0.000017325001 Rises=F Damp=F
 DIIS: error= 1.07D-04 at cycle  13 NSaved=  13.
 NSaved=13 IEnMin=13 EnMin= -2499.63446575945     IErMin=13 ErrMin= 1.07D-04
 ErrMax= 1.07D-04  0.00D+00 EMaxC= 1.00D-01 BMatC= 3.34D-06 BMatP= 1.61D-05
 IDIUse=3 WtCom= 9.99D-01 WtEn= 1.07D-03
 Coeff-Com: -0.407D-03 0.570D-03 0.111D-03 0.188D-04 0.444D-04-0.158D-02
 Coeff-Com:  0.278D-02 0.686D-02-0.166D-02-0.543D-01-0.186D+00 0.226D+00
 Coeff-Com:  0.101D+01
 Coeff-En:   0.000D+00 0.000D+00 0.000D+00 0.000D+00 0.000D+00 0.000D+00
 Coeff-En:   0.000D+00 0.000D+00 0.000D+00 0.000D+00 0.000D+00 0.000D+00
 Coeff-En:   0.100D+01
 Coeff:     -0.407D-03 0.569D-03 0.111D-03 0.188D-04 0.443D-04-0.158D-02
 Coeff:      0.278D-02 0.685D-02-0.166D-02-0.542D-01-0.186D+00 0.226D+00
 Coeff:      0.101D+01
 Gap=     0.141 Goal=   None    Shift=    0.000
 Gap=     0.135 Goal=   None    Shift=    0.000
 RMSDP=4.49D-05 MaxDP=4.35D-03 DE=-1.73D-05 OVMax= 5.48D-03

 Cycle  14  Pass 1  IDiag  1:
 RMSU=  9.46D-06    CP:  3.43D-01  6.81D-01  1.89D-01  8.70D-01  4.61D-02
                    CP:  8.33D-01  1.18D+00  1.40D+00  1.04D+00  1.55D+00
                    CP:  1.77D+00  2.02D+00  2.00D+00
 E= -2499.63447701996     Delta-E=       -0.000011260510 Rises=F Damp=F
 DIIS: error= 8.63D-05 at cycle  14 NSaved=  14.
 NSaved=14 IEnMin=14 EnMin= -2499.63447701996     IErMin=14 ErrMin= 8.63D-05
 ErrMax= 8.63D-05  0.00D+00 EMaxC= 1.00D-01 BMatC= 1.41D-06 BMatP= 3.34D-06
 IDIUse=1 WtCom= 1.00D+00 WtEn= 0.00D+00
 Coeff-Com: -0.451D-04 0.114D-03-0.766D-04-0.324D-04 0.431D-04-0.116D-03
 Coeff-Com:  0.106D-02 0.301D-02 0.138D-02-0.146D-01-0.108D+00-0.989D-01
 Coeff-Com:  0.251D+00 0.966D+00
 Coeff:     -0.451D-04 0.114D-03-0.766D-04-0.324D-04 0.431D-04-0.116D-03
 Coeff:      0.106D-02 0.301D-02 0.138D-02-0.146D-01-0.108D+00-0.989D-01
 Coeff:      0.251D+00 0.966D+00
 Gap=     0.141 Goal=   None    Shift=    0.000
 Gap=     0.135 Goal=   None    Shift=    0.000
 RMSDP=2.97D-05 MaxDP=3.50D-03 DE=-1.13D-05 OVMax= 4.21D-03

 Cycle  15  Pass 1  IDiag  1:
 RMSU=  5.67D-06    CP:  3.43D-01  6.81D-01  1.89D-01  8.70D-01  4.62D-02
                    CP:  8.33D-01  1.18D+00  1.40D+00  1.04D+00  1.58D+00
                    CP:  1.87D+00  2.41D+00  2.91D+00  1.81D+00
 E= -2499.63448219644     Delta-E=       -0.000005176482 Rises=F Damp=F
 DIIS: error= 6.95D-05 at cycle  15 NSaved=  15.
 NSaved=15 IEnMin=15 EnMin= -2499.63448219644     IErMin=15 ErrMin= 6.95D-05
 ErrMax= 6.95D-05  0.00D+00 EMaxC= 1.00D-01 BMatC= 5.27D-07 BMatP= 1.41D-06
 IDIUse=1 WtCom= 1.00D+00 WtEn= 0.00D+00
 Coeff-Com: -0.136D-03 0.202D-03-0.308D-04-0.776D-05-0.345D-06 0.137D-03
 Coeff-Com: -0.945D-03 0.349D-03 0.362D-02 0.133D-01 0.128D-01-0.716D-01
 Coeff-Com: -0.341D+00 0.188D+00 0.119D+01
 Coeff:     -0.136D-03 0.202D-03-0.308D-04-0.776D-05-0.345D-06 0.137D-03
 Coeff:     -0.945D-03 0.349D-03 0.362D-02 0.133D-01 0.128D-01-0.716D-01
 Coeff:     -0.341D+00 0.188D+00 0.119D+01
 Gap=     0.142 Goal=   None    Shift=    0.000
 Gap=     0.135 Goal=   None    Shift=    0.000
 RMSDP=2.91D-05 MaxDP=4.08D-03 DE=-5.18D-06 OVMax= 4.45D-03

 Cycle  16  Pass 1  IDiag  1:
 RMSU=  1.65D-05    CP:  3.43D-01  6.81D-01  1.89D-01  8.70D-01  4.62D-02
                    CP:  8.33D-01  1.18D+00  1.40D+00  1.05D+00  1.60D+00
                    CP:  1.96D+00  2.79D+00  3.00D+00  2.97D+00  2.08D+00
 E= -2499.63448540358     Delta-E=       -0.000003207135 Rises=F Damp=F
 DIIS: error= 4.99D-05 at cycle  16 NSaved=  16.
 NSaved=16 IEnMin=16 EnMin= -2499.63448540358     IErMin=16 ErrMin= 4.99D-05
 ErrMax= 4.99D-05  0.00D+00 EMaxC= 1.00D-01 BMatC= 3.04D-07 BMatP= 5.27D-07
 IDIUse=1 WtCom= 1.00D+00 WtEn= 0.00D+00
 Coeff-Com:  0.107D-03-0.157D-03 0.242D-04 0.125D-04 0.172D-05-0.254D-03
 Coeff-Com: -0.901D-03-0.388D-03 0.176D-02 0.822D-02 0.390D-01 0.404D-01
 Coeff-Com: -0.168D+00-0.347D+00 0.287D+00 0.114D+01
 Coeff:      0.107D-03-0.157D-03 0.242D-04 0.125D-04 0.172D-05-0.254D-03
 Coeff:     -0.901D-03-0.388D-03 0.176D-02 0.822D-02 0.390D-01 0.404D-01
 Coeff:     -0.168D+00-0.347D+00 0.287D+00 0.114D+01
 Gap=     0.142 Goal=   None    Shift=    0.000
 Gap=     0.135 Goal=   None    Shift=    0.000
 RMSDP=2.05D-05 MaxDP=3.02D-03 DE=-3.21D-06 OVMax= 3.22D-03

 Cycle  17  Pass 1  IDiag  1:
 RMSU=  8.80D-06    CP:  3.43D-01  6.81D-01  1.89D-01  8.70D-01  4.62D-02
                    CP:  8.33D-01  1.18D+00  1.40D+00  1.05D+00  1.61D+00
                    CP:  1.99D+00  3.00D+00  3.00D+00  3.00D+00  3.00D+00
                    CP:  1.77D+00
 E= -2499.63448681161     Delta-E=       -0.000001408034 Rises=F Damp=F
 DIIS: error= 3.52D-05 at cycle  17 NSaved=  17.
 NSaved=17 IEnMin=17 EnMin= -2499.63448681161     IErMin=17 ErrMin= 3.52D-05
 ErrMax= 3.52D-05  0.00D+00 EMaxC= 1.00D-01 BMatC= 9.60D-08 BMatP= 3.04D-07
 IDIUse=1 WtCom= 1.00D+00 WtEn= 0.00D+00
 Coeff-Com:  0.416D-04-0.639D-04 0.734D-05-0.796D-07-0.441D-05 0.692D-04
 Coeff-Com:  0.393D-03-0.303D-03-0.126D-02-0.275D-02 0.156D-02 0.750D-02
 Coeff-Com:  0.896D-01-0.506D-01-0.342D+00 0.102D-01 0.129D+01
 Coeff:      0.416D-04-0.639D-04 0.734D-05-0.796D-07-0.441D-05 0.692D-04
 Coeff:      0.393D-03-0.303D-03-0.126D-02-0.275D-02 0.156D-02 0.750D-02
 Coeff:      0.896D-01-0.506D-01-0.342D+00 0.102D-01 0.129D+01
 Gap=     0.142 Goal=   None    Shift=    0.000
 Gap=     0.135 Goal=   None    Shift=    0.000
 RMSDP=1.44D-05 MaxDP=2.35D-03 DE=-1.41D-06 OVMax= 2.34D-03

 Cycle  18  Pass 1  IDiag  1:
 RMSU=  6.94D-06    CP:  3.43D-01  6.81D-01  1.89D-01  8.70D-01  4.62D-02
                    CP:  8.33D-01  1.18D+00  1.40D+00  1.05D+00  1.62D+00
                    CP:  2.02D+00  3.00D+00  3.00D+00  3.00D+00  3.00D+00
                    CP:  2.30D+00  1.96D+00
 E= -2499.63448748386     Delta-E=       -0.000000672255 Rises=F Damp=F
 DIIS: error= 2.31D-05 at cycle  18 NSaved=  18.
 NSaved=18 IEnMin=18 EnMin= -2499.63448748386     IErMin=18 ErrMin= 2.31D-05
 ErrMax= 2.31D-05  0.00D+00 EMaxC= 1.00D-01 BMatC= 5.32D-08 BMatP= 9.60D-08
 IDIUse=1 WtCom= 1.00D+00 WtEn= 0.00D+00
 Coeff-Com: -0.533D-04 0.731D-04-0.110D-04-0.830D-05-0.779D-05 0.259D-03
 Coeff-Com:  0.726D-03-0.491D-04-0.199D-02-0.556D-02-0.190D-01-0.253D-01
 Coeff-Com:  0.134D+00 0.178D+00-0.294D+00-0.677D+00 0.586D+00 0.112D+01
 Coeff:     -0.533D-04 0.731D-04-0.110D-04-0.830D-05-0.779D-05 0.259D-03
 Coeff:      0.726D-03-0.491D-04-0.199D-02-0.556D-02-0.190D-01-0.253D-01
 Coeff:      0.134D+00 0.178D+00-0.294D+00-0.677D+00 0.586D+00 0.112D+01
 Gap=     0.142 Goal=   None    Shift=    0.000
 Gap=     0.135 Goal=   None    Shift=    0.000
 RMSDP=1.28D-05 MaxDP=2.07D-03 DE=-6.72D-07 OVMax= 2.07D-03

 Cycle  19  Pass 1  IDiag  1:
 RMSU=  1.77D-06    CP:  3.43D-01  6.81D-01  1.89D-01  8.70D-01  4.62D-02
                    CP:  8.33D-01  1.18D+00  1.40D+00  1.05D+00  1.62D+00
                    CP:  2.04D+00  3.00D+00  3.00D+00  3.00D+00  3.00D+00
                    CP:  2.75D+00  2.85D+00  1.91D+00
 E= -2499.63448786512     Delta-E=       -0.000000381257 Rises=F Damp=F
 DIIS: error= 1.32D-05 at cycle  19 NSaved=  19.
 NSaved=19 IEnMin=19 EnMin= -2499.63448786512     IErMin=19 ErrMin= 1.32D-05
 ErrMax= 1.32D-05  0.00D+00 EMaxC= 1.00D-01 BMatC= 1.92D-08 BMatP= 5.32D-08
 IDIUse=1 WtCom= 1.00D+00 WtEn= 0.00D+00
 Coeff-Com: -0.340D-04 0.494D-04-0.617D-05-0.392D-05 0.185D-05 0.122D-05
 Coeff-Com: -0.466D-04 0.173D-03 0.451D-04-0.504D-03-0.677D-02-0.724D-02
 Coeff-Com:  0.628D-03 0.663D-01 0.877D-01-0.238D+00-0.379D+00 0.282D+00
 Coeff-Com:  0.119D+01
 Coeff:     -0.340D-04 0.494D-04-0.617D-05-0.392D-05 0.185D-05 0.122D-05
 Coeff:     -0.466D-04 0.173D-03 0.451D-04-0.504D-03-0.677D-02-0.724D-02
 Coeff:      0.628D-03 0.663D-01 0.877D-01-0.238D+00-0.379D+00 0.282D+00
 Coeff:      0.119D+01
 Gap=     0.142 Goal=   None    Shift=    0.000
 Gap=     0.135 Goal=   None    Shift=    0.000
 RMSDP=8.86D-06 MaxDP=1.40D-03 DE=-3.81D-07 OVMax= 1.43D-03

 Cycle  20  Pass 1  IDiag  1:
 RMSU=  4.16D-06    CP:  3.43D-01  6.81D-01  1.89D-01  8.70D-01  4.62D-02
                    CP:  8.33D-01  1.18D+00  1.40D+00  1.05D+00  1.62D+00
                    CP:  2.05D+00  3.00D+00  3.00D+00  3.00D+00  3.00D+00
                    CP:  3.00D+00  3.00D+00  2.56D+00  2.19D+00
 E= -2499.63448800982     Delta-E=       -0.000000144699 Rises=F Damp=F
 DIIS: error= 5.90D-06 at cycle  20 NSaved=  20.
 NSaved=20 IEnMin=20 EnMin= -2499.63448800982     IErMin=20 ErrMin= 5.90D-06
 ErrMax= 5.90D-06  0.00D+00 EMaxC= 1.00D-01 BMatC= 6.44D-09 BMatP= 1.92D-08
 IDIUse=1 WtCom= 1.00D+00 WtEn= 0.00D+00
 Coeff-Com: -0.184D-05 0.379D-05 0.338D-05 0.156D-05 0.485D-05-0.123D-03
 Coeff-Com: -0.307D-03 0.751D-04 0.838D-03 0.183D-02 0.425D-02 0.852D-02
 Coeff-Com: -0.519D-01-0.467D-01 0.140D+00 0.156D+00-0.287D+00-0.359D+00
 Coeff-Com:  0.315D+00 0.112D+01
 Coeff:     -0.184D-05 0.379D-05 0.338D-05 0.156D-05 0.485D-05-0.123D-03
 Coeff:     -0.307D-03 0.751D-04 0.838D-03 0.183D-02 0.425D-02 0.852D-02
 Coeff:     -0.519D-01-0.467D-01 0.140D+00 0.156D+00-0.287D+00-0.359D+00
 Coeff:      0.315D+00 0.112D+01
 Gap=     0.142 Goal=   None    Shift=    0.000
 Gap=     0.135 Goal=   None    Shift=    0.000
 RMSDP=5.14D-06 MaxDP=7.69D-04 DE=-1.45D-07 OVMax= 8.16D-04

 Cycle  21  Pass 1  IDiag  1:
 Restarting incremental Fock formation.
 E= -2499.63448804853     Delta-E=       -0.000000038712 Rises=F Damp=F
 DIIS: error= 2.02D-06 at cycle  21 NSaved=  20.
 NSaved=20 IEnMin=20 EnMin= -2499.63448804853     IErMin=20 ErrMin= 2.02D-06
 ErrMax= 2.02D-06  0.00D+00 EMaxC= 1.00D-01 BMatC= 1.15D-09 BMatP= 6.44D-09
 IDIUse=1 WtCom= 1.00D+00 WtEn= 0.00D+00
 Coeff-Com: -0.481D-06 0.128D-05 0.132D-05-0.119D-05 0.174D-04 0.370D-04
 Coeff-Com: -0.105D-03-0.168D-03 0.847D-04 0.234D-02 0.165D-02-0.175D-02
 Coeff-Com: -0.912D-02-0.227D-01 0.420D-01 0.105D+00-0.605D-01-0.306D+00
 Coeff-Com: -0.235D-02 0.125D+01
 Coeff:     -0.481D-06 0.128D-05 0.132D-05-0.119D-05 0.174D-04 0.370D-04
 Coeff:     -0.105D-03-0.168D-03 0.847D-04 0.234D-02 0.165D-02-0.175D-02
 Coeff:     -0.912D-02-0.227D-01 0.420D-01 0.105D+00-0.605D-01-0.306D+00
 Coeff:     -0.235D-02 0.125D+01
 Gap=     0.142 Goal=   None    Shift=    0.000
 Gap=     0.135 Goal=   None    Shift=    0.000
 RMSDP=1.95D-06 MaxDP=2.64D-04 DE=-3.87D-08 OVMax= 2.86D-04

 Cycle  22  Pass 1  IDiag  1:
 RMSU=  1.95D-06    CP:  1.00D+00
 E= -2499.63448805586     Delta-E=       -0.000000007332 Rises=F Damp=F
 DIIS: error= 1.05D-06 at cycle  22 NSaved=  20.
 NSaved=20 IEnMin=20 EnMin= -2499.63448805586     IErMin=20 ErrMin= 1.05D-06
 ErrMax= 1.05D-06  0.00D+00 EMaxC= 1.00D-01 BMatC= 4.41D-10 BMatP= 1.15D-09
 IDIUse=1 WtCom= 1.00D+00 WtEn= 0.00D+00
 Coeff-Com: -0.700D-06-0.144D-06-0.156D-05 0.366D-04 0.953D-04-0.352D-04
 Coeff-Com: -0.248D-03-0.517D-03-0.411D-03-0.169D-02 0.118D-01 0.104D-01
 Coeff-Com: -0.411D-01-0.295D-01 0.103D+00 0.771D-01-0.178D+00-0.289D+00
 Coeff-Com:  0.429D+00 0.909D+00
 Coeff:     -0.700D-06-0.144D-06-0.156D-05 0.366D-04 0.953D-04-0.352D-04
 Coeff:     -0.248D-03-0.517D-03-0.411D-03-0.169D-02 0.118D-01 0.104D-01
 Coeff:     -0.411D-01-0.295D-01 0.103D+00 0.771D-01-0.178D+00-0.289D+00
 Coeff:      0.429D+00 0.909D+00
 Gap=     0.142 Goal=   None    Shift=    0.000
 Gap=     0.135 Goal=   None    Shift=    0.000
 RMSDP=7.74D-07 MaxDP=1.05D-04 DE=-7.33D-09 OVMax= 1.07D-04

 Cycle  23  Pass 1  IDiag  1:
 RMSU=  1.98D-07    CP:  1.00D+00  1.38D+00
 E= -2499.63448805760     Delta-E=       -0.000000001735 Rises=F Damp=F
 DIIS: error= 8.10D-07 at cycle  23 NSaved=  20.
 NSaved=20 IEnMin=20 EnMin= -2499.63448805760     IErMin=20 ErrMin= 8.10D-07
 ErrMax= 8.10D-07  0.00D+00 EMaxC= 1.00D-01 BMatC= 1.59D-10 BMatP= 4.41D-10
 IDIUse=1 WtCom= 1.00D+00 WtEn= 0.00D+00
 Coeff-Com: -0.153D-06-0.144D-06-0.353D-06 0.167D-06 0.300D-04 0.810D-05
 Coeff-Com: -0.215D-03-0.104D-02-0.286D-03 0.294D-02 0.496D-02 0.109D-02
 Coeff-Com: -0.241D-01-0.232D-01 0.506D-01 0.908D-01-0.764D-01-0.457D+00
 Coeff-Com:  0.216D+00 0.122D+01
 Coeff:     -0.153D-06-0.144D-06-0.353D-06 0.167D-06 0.300D-04 0.810D-05
 Coeff:     -0.215D-03-0.104D-02-0.286D-03 0.294D-02 0.496D-02 0.109D-02
 Coeff:     -0.241D-01-0.232D-01 0.506D-01 0.908D-01-0.764D-01-0.457D+00
 Coeff:      0.216D+00 0.122D+01
 Gap=     0.142 Goal=   None    Shift=    0.000
 Gap=     0.135 Goal=   None    Shift=    0.000
 RMSDP=5.44D-07 MaxDP=7.06D-05 DE=-1.74D-09 OVMax= 6.33D-05

 Cycle  24  Pass 1  IDiag  1:
 RMSU=  1.10D-07    CP:  1.00D+00  1.62D+00  2.29D+00
 E= -2499.63448805828     Delta-E=       -0.000000000686 Rises=F Damp=F
 DIIS: error= 4.95D-07 at cycle  24 NSaved=  20.
 NSaved=20 IEnMin=20 EnMin= -2499.63448805828     IErMin=20 ErrMin= 4.95D-07
 ErrMax= 4.95D-07  0.00D+00 EMaxC= 1.00D-01 BMatC= 5.82D-11 BMatP= 1.59D-10
 IDIUse=1 WtCom= 1.00D+00 WtEn= 0.00D+00
 Coeff-Com: -0.611D-07-0.533D-05-0.161D-04 0.162D-04 0.341D-04 0.554D-05
 Coeff-Com: -0.425D-03 0.128D-03-0.878D-03 0.117D-02 0.740D-02-0.687D-02
 Coeff-Com: -0.301D-01 0.113D-01 0.761D-01 0.229D-01-0.309D+00-0.108D+00
 Coeff-Com:  0.589D+00 0.747D+00
 Coeff:     -0.611D-07-0.533D-05-0.161D-04 0.162D-04 0.341D-04 0.554D-05
 Coeff:     -0.425D-03 0.128D-03-0.878D-03 0.117D-02 0.740D-02-0.687D-02
 Coeff:     -0.301D-01 0.113D-01 0.761D-01 0.229D-01-0.309D+00-0.108D+00
 Coeff:      0.589D+00 0.747D+00
 Gap=     0.142 Goal=   None    Shift=    0.000
 Gap=     0.135 Goal=   None    Shift=    0.000
 RMSDP=1.92D-07 MaxDP=2.38D-05 DE=-6.86D-10 OVMax= 2.14D-05

 Cycle  25  Pass 1  IDiag  1:
 RMSU=  6.15D-08    CP:  1.00D+00  1.70D+00  2.76D+00  1.32D+00
 E= -2499.63448805848     Delta-E=       -0.000000000198 Rises=F Damp=F
 DIIS: error= 3.49D-07 at cycle  25 NSaved=  20.
 NSaved=20 IEnMin=20 EnMin= -2499.63448805848     IErMin=20 ErrMin= 3.49D-07
 ErrMax= 3.49D-07  0.00D+00 EMaxC= 1.00D-01 BMatC= 1.76D-11 BMatP= 5.82D-11
 IDIUse=1 WtCom= 1.00D+00 WtEn= 0.00D+00
 Coeff-Com: -0.190D-05-0.641D-05-0.533D-05 0.105D-04 0.783D-04 0.171D-03
 Coeff-Com:  0.144D-03-0.136D-02-0.901D-03 0.236D-02 0.538D-02-0.580D-02
 Coeff-Com: -0.108D-01 0.224D-02 0.343D-01 0.175D-01-0.107D+00-0.149D+00
 Coeff-Com:  0.272D+00 0.941D+00
 Coeff:     -0.190D-05-0.641D-05-0.533D-05 0.105D-04 0.783D-04 0.171D-03
 Coeff:      0.144D-03-0.136D-02-0.901D-03 0.236D-02 0.538D-02-0.580D-02
 Coeff:     -0.108D-01 0.224D-02 0.343D-01 0.175D-01-0.107D+00-0.149D+00
 Coeff:      0.272D+00 0.941D+00
 Gap=     0.142 Goal=   None    Shift=    0.000
 Gap=     0.135 Goal=   None    Shift=    0.000
 RMSDP=1.08D-07 MaxDP=1.02D-05 DE=-1.98D-10 OVMax= 1.39D-05

 Cycle  26  Pass 1  IDiag  1:
 RMSU=  3.37D-08    CP:  1.00D+00  1.73D+00  2.99D+00  1.71D+00  1.87D+00
 E= -2499.63448805854     Delta-E=       -0.000000000056 Rises=F Damp=F
 DIIS: error= 2.37D-07 at cycle  26 NSaved=  20.
 NSaved=20 IEnMin=20 EnMin= -2499.63448805854     IErMin=20 ErrMin= 2.37D-07
 ErrMax= 2.37D-07  0.00D+00 EMaxC= 1.00D-01 BMatC= 1.10D-11 BMatP= 1.76D-11
 IDIUse=1 WtCom= 1.00D+00 WtEn= 0.00D+00
 Coeff-Com: -0.253D-06-0.893D-05 0.217D-05 0.585D-04 0.296D-03 0.758D-04
 Coeff-Com: -0.808D-03-0.134D-02-0.389D-03 0.738D-02 0.461D-02-0.126D-01
 Coeff-Com: -0.231D-01 0.167D-01 0.122D+00-0.322D-01-0.324D+00-0.110D+00
 Coeff-Com:  0.627D+00 0.726D+00
 Coeff:     -0.253D-06-0.893D-05 0.217D-05 0.585D-04 0.296D-03 0.758D-04
 Coeff:     -0.808D-03-0.134D-02-0.389D-03 0.738D-02 0.461D-02-0.126D-01
 Coeff:     -0.231D-01 0.167D-01 0.122D+00-0.322D-01-0.324D+00-0.110D+00
 Coeff:      0.627D+00 0.726D+00
 Gap=     0.142 Goal=   None    Shift=    0.000
 Gap=     0.135 Goal=   None    Shift=    0.000
 RMSDP=6.65D-08 MaxDP=4.71D-06 DE=-5.64D-11 OVMax= 1.02D-05

 Cycle  27  Pass 1  IDiag  1:
 RMSU=  3.13D-08    CP:  1.00D+00  1.75D+00  3.00D+00  1.95D+00  2.53D+00
                    CP:  1.33D+00
 E= -2499.63448805855     Delta-E=       -0.000000000007 Rises=F Damp=F
 DIIS: error= 1.56D-07 at cycle  27 NSaved=  20.
 NSaved=20 IEnMin=20 EnMin= -2499.63448805855     IErMin=20 ErrMin= 1.56D-07
 ErrMax= 1.56D-07  0.00D+00 EMaxC= 1.00D-01 BMatC= 2.27D-12 BMatP= 1.10D-11
 IDIUse=1 WtCom= 1.00D+00 WtEn= 0.00D+00
 Coeff-Com:  0.246D-05 0.307D-05-0.107D-04-0.351D-05-0.398D-04 0.210D-03
 Coeff-Com: -0.206D-03-0.254D-03 0.418D-03 0.961D-04 0.748D-03 0.112D-03
 Coeff-Com: -0.893D-02 0.529D-02 0.304D-01 0.135D-01-0.902D-01-0.301D+00
 Coeff-Com:  0.256D-01 0.132D+01
 Coeff:      0.246D-05 0.307D-05-0.107D-04-0.351D-05-0.398D-04 0.210D-03
 Coeff:     -0.206D-03-0.254D-03 0.418D-03 0.961D-04 0.748D-03 0.112D-03
 Coeff:     -0.893D-02 0.529D-02 0.304D-01 0.135D-01-0.902D-01-0.301D+00
 Coeff:      0.256D-01 0.132D+01
 Gap=     0.142 Goal=   None    Shift=    0.000
 Gap=     0.135 Goal=   None    Shift=    0.000
 RMSDP=5.53D-08 MaxDP=3.78D-06 DE=-7.28D-12 OVMax= 9.44D-06

 Cycle  28  Pass 1  IDiag  1:
 RMSU=  2.02D-08    CP:  1.00D+00  1.76D+00  3.00D+00  2.11D+00  2.96D+00
                    CP:  1.88D+00  1.83D+00
 E= -2499.63448805854     Delta-E=        0.000000000004 Rises=F Damp=F
 DIIS: error= 8.29D-08 at cycle  28 NSaved=  20.
 NSaved=20 IEnMin=19 EnMin= -2499.63448805855     IErMin=20 ErrMin= 8.29D-08
 ErrMax= 8.29D-08  0.00D+00 EMaxC= 1.00D-01 BMatC= 7.16D-13 BMatP= 2.27D-12
 IDIUse=1 WtCom= 1.00D+00 WtEn= 0.00D+00
 Coeff-Com: -0.266D-05-0.159D-05-0.299D-04 0.137D-06 0.143D-03 0.153D-03
 Coeff-Com: -0.260D-03-0.503D-03-0.373D-03 0.965D-03 0.267D-02-0.143D-02
 Coeff-Com: -0.139D-01 0.441D-02 0.540D-01 0.112D-01-0.132D+00-0.149D+00
 Coeff-Com:  0.301D-01 0.119D+01
 Coeff:     -0.266D-05-0.159D-05-0.299D-04 0.137D-06 0.143D-03 0.153D-03
 Coeff:     -0.260D-03-0.503D-03-0.373D-03 0.965D-03 0.267D-02-0.143D-02
 Coeff:     -0.139D-01 0.441D-02 0.540D-01 0.112D-01-0.132D+00-0.149D+00
 Coeff:      0.301D-01 0.119D+01
 Gap=     0.142 Goal=   None    Shift=    0.000
 Gap=     0.135 Goal=   None    Shift=    0.000
 RMSDP=2.60D-08 MaxDP=2.18D-06 DE= 3.64D-12 OVMax= 4.66D-06

 Cycle  29  Pass 1  IDiag  1:
 RMSU=  9.13D-09    CP:  1.00D+00  1.76D+00  3.00D+00  2.17D+00  3.00D+00
                    CP:  2.11D+00  2.19D+00  1.89D+00
 E= -2499.63448805858     Delta-E=       -0.000000000038 Rises=F Damp=F
 DIIS: error= 4.64D-08 at cycle  29 NSaved=  20.
 NSaved=20 IEnMin=20 EnMin= -2499.63448805858     IErMin=20 ErrMin= 4.64D-08
 ErrMax= 4.64D-08  0.00D+00 EMaxC= 1.00D-01 BMatC= 3.19D-13 BMatP= 7.16D-13
 IDIUse=1 WtCom= 1.00D+00 WtEn= 0.00D+00
 Coeff-Com: -0.370D-05-0.479D-04-0.879D-05 0.830D-04 0.233D-03 0.348D-04
 Coeff-Com: -0.104D-02-0.721D-03 0.181D-02 0.391D-02-0.117D-02-0.239D-01
 Coeff-Com: -0.280D-02 0.579D-01 0.380D-01-0.325D-01-0.113D+00-0.334D+00
 Coeff-Com:  0.438D+00 0.969D+00
 Coeff:     -0.370D-05-0.479D-04-0.879D-05 0.830D-04 0.233D-03 0.348D-04
 Coeff:     -0.104D-02-0.721D-03 0.181D-02 0.391D-02-0.117D-02-0.239D-01
 Coeff:     -0.280D-02 0.579D-01 0.380D-01-0.325D-01-0.113D+00-0.334D+00
 Coeff:      0.438D+00 0.969D+00
 Gap=     0.142 Goal=   None    Shift=    0.000
 Gap=     0.135 Goal=   None    Shift=    0.000
 RMSDP=1.87D-08 MaxDP=1.50D-06 DE=-3.82D-11 OVMax= 3.41D-06

 Cycle  30  Pass 1  IDiag  1:
 RMSU=  4.53D-09    CP:  1.00D+00  1.76D+00  3.00D+00  2.21D+00  3.00D+00
                    CP:  2.27D+00  2.46D+00  2.45D+00  1.72D+00
 E= -2499.63448805851     Delta-E=        0.000000000075 Rises=F Damp=F
 DIIS: error= 2.00D-08 at cycle  30 NSaved=  20.
 NSaved=20 IEnMin=19 EnMin= -2499.63448805858     IErMin=20 ErrMin= 2.00D-08
 ErrMax= 2.00D-08  0.00D+00 EMaxC= 1.00D-01 BMatC= 7.50D-14 BMatP= 3.19D-13
 IDIUse=1 WtCom= 1.00D+00 WtEn= 0.00D+00
 Coeff-Com: -0.362D-05 0.461D-05-0.203D-04 0.585D-04 0.679D-04-0.257D-03
 Coeff-Com: -0.207D-04 0.869D-04-0.114D-04 0.111D-02 0.540D-03-0.598D-02
 Coeff-Com: -0.306D-02 0.123D-01 0.345D-01 0.405D-02-0.117D+00-0.116D+00
 Coeff-Com:  0.165D+00 0.102D+01
 Coeff:     -0.362D-05 0.461D-05-0.203D-04 0.585D-04 0.679D-04-0.257D-03
 Coeff:     -0.207D-04 0.869D-04-0.114D-04 0.111D-02 0.540D-03-0.598D-02
 Coeff:     -0.306D-02 0.123D-01 0.345D-01 0.405D-02-0.117D+00-0.116D+00
 Coeff:      0.165D+00 0.102D+01
 Gap=     0.142 Goal=   None    Shift=    0.000
 Gap=     0.135 Goal=   None    Shift=    0.000
 RMSDP=7.24D-09 MaxDP=6.35D-07 DE= 7.46D-11 OVMax= 1.21D-06

 SCF Done:  E(UwB97XD) =  -2499.63448806     A.U. after   30 cycles
            NFock= 30  Conv=0.72D-08     -V/T= 3.6230
 <Sx>= 0.0000 <Sy>= 0.0000 <Sz>= 0.5000 <S**2>= 0.7632 S= 0.5066
 <L.S>=  0.00000000000    
 KE= 9.529631976331D+02 PE=-1.854843545073D+04 EE= 8.516235029553D+03
 Annihilation of the first spin contaminant:
 S**2 before annihilation     0.7632,   after     0.7501
 Leave Link  502 at Wed Mar  5 08:09:26 2025, MaxMem=  2097152000 cpu:            6374.7 elap:            1600.6
 (Enter /nvme/h/buildsets/eb_nepheli/software/Gaussian/16.C.01-AVX2/g16/l508.exe)
 QCSCF skips out because SCF is already converged.
 Leave Link  508 at Wed Mar  5 08:09:26 2025, MaxMem=  2097152000 cpu:               0.1 elap:               0.0
 (Enter /nvme/h/buildsets/eb_nepheli/software/Gaussian/16.C.01-AVX2/g16/l601.exe)
 Copying SCF densities to generalized density rwf, IOpCl= 1 IROHF=0.

 **********************************************************************

            Population analysis using the SCF Density.

 **********************************************************************

 Orbital symmetries:
 Alpha Orbitals:
       Occupied  (A) (A) (A) (A) (A) (A) (A) (A) (A) (A) (A) (A)
                 (A) (A) (A) (A) (A) (A) (A) (A) (A) (A) (A) (A)
                 (A) (A) (A) (A) (A) (A) (A) (A) (A) (A) (A) (A)
                 (A) (A) (A) (A) (A) (A) (A) (A) (A) (A) (A) (A)
                 (A) (A) (A) (A) (A) (A) (A) (A) (A) (A) (A) (A)
                 (A) (A) (A) (A) (A) (A) (A) (A) (A) (A) (A) (A)
                 (A) (A) (A) (A) (A) (A) (A) (A) (A) (A) (A) (A)
                 (A) (A) (A) (A) (A) (A) (A) (A) (A) (A) (A) (A)
                 (A) (A) (A) (A) (A) (A) (A) (A) (A) (A) (A) (A)
                 (A) (A) (A) (A) (A) (A) (A) (A) (A) (A) (A) (A)
                 (A) (A) (A) (A) (A) (A) (A) (A) (A) (A) (A) (A)
                 (A) (A) (A) (A) (A) (A) (A) (A) (A) (A) (A) (A)
                 (A) (A) (A) (A) (A) (A) (A) (A) (A) (A) (A) (A)
                 (A) (A) (A) (A) (A) (A)
       Virtual   (A) (A) (A) (A) (A) (A) (A) (A) (A) (A) (A) (A)
                 (A) (A) (A) (A) (A) (A) (A) (A) (A) (A) (A) (A)
                 (A) (A) (A) (A) (A) (A) (A) (A) (A) (A) (A) (A)
                 (A) (A) (A) (A) (A) (A) (A) (A) (A) (A) (A) (A)
                 (A) (A) (A) (A) (A) (A) (A) (A) (A) (A) (A) (A)
                 (A) (A) (A) (A) (A) (A) (A) (A) (A) (A) (A) (A)
                 (A) (A) (A) (A) (A) (A) (A) (A) (A) (A) (A) (A)
                 (A) (A) (A) (A) (A) (A) (A) (A) (A) (A) (A) (A)
                 (A) (A) (A) (A) (A) (A) (A) (A) (A) (A) (A) (A)
                 (A) (A) (A) (A) (A) (A) (A) (A) (A) (A) (A) (A)
                 (A) (A) (A) (A) (A) (A) (A) (A) (A) (A) (A) (A)
                 (A) (A) (A) (A) (A) (A) (A) (A) (A) (A) (A) (A)
                 (A) (A) (A) (A) (A) (A) (A) (A) (A) (A) (A) (A)
                 (A) (A) (A) (A) (A) (A) (A) (A) (A) (A) (A) (A)
                 (A) (A) (A) (A) (A) (A) (A) (A) (A) (A) (A) (A)
                 (A) (A) (A) (A) (A) (A) (A) (A) (A) (A) (A) (A)
                 (A) (A) (A) (A) (A) (A) (A) (A) (A) (A) (A) (A)
                 (A) (A) (A) (A) (A) (A) (A) (A) (A) (A) (A) (A)
                 (A) (A) (A) (A) (A) (A) (A) (A) (A) (A) (A) (A)
                 (A) (A) (A) (A) (A) (A) (A) (A) (A) (A) (A) (A)
                 (A) (A) (A) (A) (A) (A) (A) (A) (A) (A) (A) (A)
                 (A) (A) (A) (A) (A) (A) (A) (A) (A) (A) (A) (A)
                 (A) (A) (A) (A) (A) (A) (A) (A) (A) (A) (A) (A)
                 (A) (A) (A) (A) (A) (A) (A) (A) (A) (A) (A) (A)
                 (A) (A) (A) (A) (A) (A) (A) (A) (A) (A) (A) (A)
                 (A) (A) (A) (A) (A) (A) (A) (A) (A) (A) (A) (A)
                 (A) (A) (A) (A) (A) (A) (A) (A) (A) (A) (A) (A)
                 (A) (A) (A) (A) (A) (A) (A) (A) (A) (A) (A) (A)
                 (A) (A) (A) (A) (A) (A) (A) (A) (A) (A) (A) (A)
                 (A) (A) (A) (A) (A) (A) (A) (A) (A) (A) (A) (A)
                 (A) (A) (A) (A) (A)
 Beta  Orbitals:
       Occupied  (A) (A) (A) (A) (A) (A) (A) (A) (A) (A) (A) (A)
                 (A) (A) (A) (A) (A) (A) (A) (A) (A) (A) (A) (A)
                 (A) (A) (A) (A) (A) (A) (A) (A) (A) (A) (A) (A)
                 (A) (A) (A) (A) (A) (A) (A) (A) (A) (A) (A) (A)
                 (A) (A) (A) (A) (A) (A) (A) (A) (A) (A) (A) (A)
                 (A) (A) (A) (A) (A) (A) (A) (A) (A) (A) (A) (A)
                 (A) (A) (A) (A) (A) (A) (A) (A) (A) (A) (A) (A)
                 (A) (A) (A) (A) (A) (A) (A) (A) (A) (A) (A) (A)
                 (A) (A) (A) (A) (A) (A) (A) (A) (A) (A) (A) (A)
                 (A) (A) (A) (A) (A) (A) (A) (A) (A) (A) (A) (A)
                 (A) (A) (A) (A) (A) (A) (A) (A) (A) (A) (A) (A)
                 (A) (A) (A) (A) (A) (A) (A) (A) (A) (A) (A) (A)
                 (A) (A) (A) (A) (A) (A) (A) (A) (A) (A) (A) (A)
                 (A) (A) (A) (A) (A)
       Virtual   (A) (A) (A) (A) (A) (A) (A) (A) (A) (A) (A) (A)
                 (A) (A) (A) (A) (A) (A) (A) (A) (A) (A) (A) (A)
                 (A) (A) (A) (A) (A) (A) (A) (A) (A) (A) (A) (A)
                 (A) (A) (A) (A) (A) (A) (A) (A) (A) (A) (A) (A)
                 (A) (A) (A) (A) (A) (A) (A) (A) (A) (A) (A) (A)
                 (A) (A) (A) (A) (A) (A) (A) (A) (A) (A) (A) (A)
                 (A) (A) (A) (A) (A) (A) (A) (A) (A) (A) (A) (A)
                 (A) (A) (A) (A) (A) (A) (A) (A) (A) (A) (A) (A)
                 (A) (A) (A) (A) (A) (A) (A) (A) (A) (A) (A) (A)
                 (A) (A) (A) (A) (A) (A) (A) (A) (A) (A) (A) (A)
                 (A) (A) (A) (A) (A) (A) (A) (A) (A) (A) (A) (A)
                 (A) (A) (A) (A) (A) (A) (A) (A) (A) (A) (A) (A)
                 (A) (A) (A) (A) (A) (A) (A) (A) (A) (A) (A) (A)
                 (A) (A) (A) (A) (A) (A) (A) (A) (A) (A) (A) (A)
                 (A) (A) (A) (A) (A) (A) (A) (A) (A) (A) (A) (A)
                 (A) (A) (A) (A) (A) (A) (A) (A) (A) (A) (A) (A)
                 (A) (A) (A) (A) (A) (A) (A) (A) (A) (A) (A) (A)
                 (A) (A) (A) (A) (A) (A) (A) (A) (A) (A) (A) (A)
                 (A) (A) (A) (A) (A) (A) (A) (A) (A) (A) (A) (A)
                 (A) (A) (A) (A) (A) (A) (A) (A) (A) (A) (A) (A)
                 (A) (A) (A) (A) (A) (A) (A) (A) (A) (A) (A) (A)
                 (A) (A) (A) (A) (A) (A) (A) (A) (A) (A) (A) (A)
                 (A) (A) (A) (A) (A) (A) (A) (A) (A) (A) (A) (A)
                 (A) (A) (A) (A) (A) (A) (A) (A) (A) (A) (A) (A)
                 (A) (A) (A) (A) (A) (A) (A) (A) (A) (A) (A) (A)
                 (A) (A) (A) (A) (A) (A) (A) (A) (A) (A) (A) (A)
                 (A) (A) (A) (A) (A) (A) (A) (A) (A) (A) (A) (A)
                 (A) (A) (A) (A) (A) (A) (A) (A) (A) (A) (A) (A)
                 (A) (A) (A) (A) (A) (A) (A) (A) (A) (A) (A) (A)
                 (A) (A) (A) (A) (A) (A) (A) (A) (A) (A) (A) (A)
                 (A) (A) (A) (A) (A) (A)
 The electronic state is 2-A.
 Alpha  occ. eigenvalues --   -3.87224  -3.85426  -3.85426  -3.84993  -3.84993
 Alpha  occ. eigenvalues --   -3.84884  -3.84884  -3.84871  -3.84871  -3.84552
 Alpha  occ. eigenvalues --   -3.84550  -3.84228  -3.84228  -3.83931  -3.83920
 Alpha  occ. eigenvalues --   -3.83901  -3.83901  -2.45491  -2.45420  -2.45196
 Alpha  occ. eigenvalues --   -2.43732  -2.43712  -2.43557  -2.43556  -2.43483
 Alpha  occ. eigenvalues --   -2.43482  -2.43272  -2.43265  -2.43120  -2.43118
 Alpha  occ. eigenvalues --   -2.43104  -2.43100  -2.43079  -2.43076  -2.43047
 Alpha  occ. eigenvalues --   -2.43046  -2.42997  -2.42997  -2.42975  -2.42973
 Alpha  occ. eigenvalues --   -2.42956  -2.42953  -2.42893  -2.42890  -2.42782
 Alpha  occ. eigenvalues --   -2.42780  -2.42655  -2.42643  -2.42626  -2.42594
 Alpha  occ. eigenvalues --   -2.42461  -2.42443  -2.42372  -2.42365  -2.42243
 Alpha  occ. eigenvalues --   -2.42228  -2.42150  -2.42127  -2.42120  -2.42107
 Alpha  occ. eigenvalues --   -2.42095  -2.42039  -2.42011  -2.41967  -2.41966
 Alpha  occ. eigenvalues --   -2.41965  -2.41944  -2.41939  -0.49283  -0.49123
 Alpha  occ. eigenvalues --   -0.48833  -0.48684  -0.48351  -0.47837  -0.46329
 Alpha  occ. eigenvalues --   -0.46303  -0.46091  -0.46055  -0.46027  -0.45730
 Alpha  occ. eigenvalues --   -0.45523  -0.45482  -0.45478  -0.45410  -0.45271
 Alpha  occ. eigenvalues --   -0.45237  -0.45219  -0.45000  -0.44929  -0.44813
 Alpha  occ. eigenvalues --   -0.44536  -0.44526  -0.44507  -0.44230  -0.44104
 Alpha  occ. eigenvalues --   -0.44017  -0.43865  -0.43638  -0.43565  -0.43557
 Alpha  occ. eigenvalues --   -0.43411  -0.43349  -0.43108  -0.42918  -0.42882
 Alpha  occ. eigenvalues --   -0.42788  -0.42785  -0.42658  -0.42515  -0.42437
 Alpha  occ. eigenvalues --   -0.42134  -0.42108  -0.41898  -0.41560  -0.41281
 Alpha  occ. eigenvalues --   -0.41200  -0.40970  -0.40905  -0.40883  -0.40807
 Alpha  occ. eigenvalues --   -0.40746  -0.40610  -0.40585  -0.40500  -0.40336
 Alpha  occ. eigenvalues --   -0.40335  -0.40269  -0.40265  -0.40101  -0.40019
 Alpha  occ. eigenvalues --   -0.39946  -0.39834  -0.39763  -0.39732  -0.39689
 Alpha  occ. eigenvalues --   -0.39588  -0.39562  -0.39539  -0.39493  -0.39366
 Alpha  occ. eigenvalues --   -0.39295  -0.39254  -0.39247  -0.39156  -0.38899
 Alpha  occ. eigenvalues --   -0.38690  -0.38613  -0.38540  -0.38323  -0.38233
 Alpha  occ. eigenvalues --   -0.37950  -0.37697  -0.37645  -0.37580  -0.35193
 Alpha  occ. eigenvalues --   -0.34139  -0.32381  -0.24968  -0.24009  -0.22958
 Alpha  occ. eigenvalues --   -0.21313  -0.20216
 Alpha virt. eigenvalues --   -0.06062  -0.04163  -0.03981  -0.03100  -0.02687
 Alpha virt. eigenvalues --   -0.02246  -0.02100  -0.00543   0.00733   0.01318
 Alpha virt. eigenvalues --    0.02351   0.04243   0.04399   0.04596   0.05021
 Alpha virt. eigenvalues --    0.05284   0.05720   0.06443   0.06857   0.08047
 Alpha virt. eigenvalues --    0.09515   0.09633   0.10138   0.10959   0.11177
 Alpha virt. eigenvalues --    0.11837   0.12467   0.12501   0.12585   0.13015
 Alpha virt. eigenvalues --    0.13430   0.13693   0.14001   0.14130   0.14445
 Alpha virt. eigenvalues --    0.14604   0.14713   0.15634   0.15774   0.15927
 Alpha virt. eigenvalues --    0.16022   0.16306   0.16851   0.17252   0.17553
 Alpha virt. eigenvalues --    0.18156   0.18735   0.19292   0.19557   0.20122
 Alpha virt. eigenvalues --    0.20170   0.20264   0.20669   0.20685   0.20810
 Alpha virt. eigenvalues --    0.21577   0.22984   0.23075   0.24684   0.26569
 Alpha virt. eigenvalues --    0.26652   0.27347   0.27399   0.28158   0.28627
 Alpha virt. eigenvalues --    0.28880   0.29457   0.29660   0.30208   0.30249
 Alpha virt. eigenvalues --    0.30363   0.30511   0.31198   0.31784   0.32382
 Alpha virt. eigenvalues --    0.32792   0.32855   0.33379   0.33468   0.33951
 Alpha virt. eigenvalues --    0.34248   0.35335   0.35585   0.35772   0.36180
 Alpha virt. eigenvalues --    0.36258   0.37574   0.38049   0.38291   0.38773
 Alpha virt. eigenvalues --    0.38993   0.39575   0.40248   0.40440   0.41040
 Alpha virt. eigenvalues --    0.41330   0.42623   0.43372   0.44140   0.45250
 Alpha virt. eigenvalues --    0.45733   0.46495   0.46803   0.47008   0.47519
 Alpha virt. eigenvalues --    0.47723   0.47864   0.49190   0.51243   0.51745
 Alpha virt. eigenvalues --    0.52225   0.52724   0.53582   0.53646   0.54551
 Alpha virt. eigenvalues --    0.55167   0.55982   0.56697   0.56754   0.57329
 Alpha virt. eigenvalues --    0.58473   0.60363   0.60656   0.61724   0.62640
 Alpha virt. eigenvalues --    0.62880   0.63575   0.63844   0.64658   0.65138
 Alpha virt. eigenvalues --    0.65791   0.66538   0.66598   0.66910   0.66927
 Alpha virt. eigenvalues --    0.67344   0.67823   0.68259   0.68442   0.69453
 Alpha virt. eigenvalues --    0.69566   0.69941   0.71660   0.71772   0.72886
 Alpha virt. eigenvalues --    0.74047   0.74600   0.75060   0.75192   0.75425
 Alpha virt. eigenvalues --    0.75693   0.75713   0.76083   0.77011   0.77497
 Alpha virt. eigenvalues --    0.78077   0.78638   0.79157   0.79604   0.80281
 Alpha virt. eigenvalues --    0.80445   0.80984   0.81633   0.81684   0.81912
 Alpha virt. eigenvalues --    0.82334   0.83168   0.83349   0.84174   0.85270
 Alpha virt. eigenvalues --    0.85686   0.86087   0.86275   0.86935   0.87488
 Alpha virt. eigenvalues --    0.88082   0.88232   0.89155   0.89304   0.89618
 Alpha virt. eigenvalues --    0.90603   0.90865   0.90905   0.92751   0.93434
 Alpha virt. eigenvalues --    0.94621   0.95998   0.96032   0.99406   1.00215
 Alpha virt. eigenvalues --    1.01957   1.02068   1.04081   1.04657   1.06153
 Alpha virt. eigenvalues --    1.06678   1.07480   1.07591   1.08125   1.08237
 Alpha virt. eigenvalues --    1.08997   1.09591   1.10537   1.10825   1.11946
 Alpha virt. eigenvalues --    1.13745   1.14797   1.14999   1.30834   1.35725
 Alpha virt. eigenvalues --    1.37860   1.40435   2.19372   2.30196   2.31886
 Alpha virt. eigenvalues --    2.36559   2.37999   2.38877   2.39233   2.40914
 Alpha virt. eigenvalues --    2.42913   2.43856   2.45284   2.46983   2.47386
 Alpha virt. eigenvalues --    2.49243   2.52246   2.53641   2.57565   2.65626
 Alpha virt. eigenvalues --    2.65740   2.65812   2.65827   2.66878   2.66934
 Alpha virt. eigenvalues --    2.66972   2.66984   2.67007   2.67097   2.67102
 Alpha virt. eigenvalues --    2.67159   2.67202   2.67207   2.67233   2.67300
 Alpha virt. eigenvalues --    2.67305   2.67343   2.67402   2.67432   2.67444
 Alpha virt. eigenvalues --    2.67449   2.67466   2.67475   2.67514   2.67558
 Alpha virt. eigenvalues --    2.67595   2.67618   2.67657   2.67677   2.67699
 Alpha virt. eigenvalues --    2.67705   2.67725   2.67776   2.67833   2.67839
 Alpha virt. eigenvalues --    2.67849   2.67871   2.67892   2.67946   2.67967
 Alpha virt. eigenvalues --    2.67989   2.68062   2.68108   2.68194   2.68219
 Alpha virt. eigenvalues --    2.68255   2.68284   2.68311   2.68342   2.68349
 Alpha virt. eigenvalues --    2.68367   2.68406   2.68417   2.68442   2.68470
 Alpha virt. eigenvalues --    2.68523   2.68530   2.68531   2.68558   2.68610
 Alpha virt. eigenvalues --    2.68612   2.68654   2.68692   2.68720   2.68815
 Alpha virt. eigenvalues --    2.68817   2.68889   2.68895   2.68959   2.69001
 Alpha virt. eigenvalues --    2.69017   2.69050   2.69072   2.69127   2.69142
 Alpha virt. eigenvalues --    2.69167   2.69243   2.69247   2.69282   2.69319
 Alpha virt. eigenvalues --    2.69335   2.69374   2.69453   2.69532   2.69595
 Alpha virt. eigenvalues --    2.69631   2.69744   2.69760   2.69977   2.70080
 Alpha virt. eigenvalues --    2.70112   2.70196   2.70229   2.70444   2.70544
 Alpha virt. eigenvalues --    2.70567   2.70749   2.70800   2.70860   2.71069
 Alpha virt. eigenvalues --    2.71349   2.71380   2.71521   2.71530   2.71767
 Alpha virt. eigenvalues --    2.71836   2.71923   2.72105   2.72447   2.72724
 Alpha virt. eigenvalues --    2.72871   2.74061   2.74257   2.76790   2.76976
 Alpha virt. eigenvalues --    2.78989   2.79123   2.99636  54.36177  54.42639
 Alpha virt. eigenvalues --   54.43631  54.47413  54.48453  54.48625  54.49123
 Alpha virt. eigenvalues --   54.51138  54.52055  54.53527  54.54518  54.55782
 Alpha virt. eigenvalues --   54.57893  54.59189  54.62693  54.62745  54.83552
  Beta  occ. eigenvalues --   -3.87072  -3.85414  -3.85414  -3.84949  -3.84948
  Beta  occ. eigenvalues --   -3.84859  -3.84858  -3.84832  -3.84832  -3.84526
  Beta  occ. eigenvalues --   -3.84524  -3.84193  -3.84193  -3.83932  -3.83921
  Beta  occ. eigenvalues --   -3.83874  -3.83874  -2.45265  -2.45219  -2.45128
  Beta  occ. eigenvalues --   -2.43727  -2.43704  -2.43539  -2.43538  -2.43482
  Beta  occ. eigenvalues --   -2.43481  -2.43243  -2.43235  -2.43091  -2.43088
  Beta  occ. eigenvalues --   -2.43078  -2.43072  -2.43053  -2.43052  -2.43005
  Beta  occ. eigenvalues --   -2.43004  -2.42985  -2.42984  -2.42947  -2.42945
  Beta  occ. eigenvalues --   -2.42933  -2.42929  -2.42857  -2.42856  -2.42766
  Beta  occ. eigenvalues --   -2.42764  -2.42629  -2.42621  -2.42592  -2.42558
  Beta  occ. eigenvalues --   -2.42422  -2.42402  -2.42342  -2.42330  -2.42226
  Beta  occ. eigenvalues --   -2.42211  -2.42143  -2.42107  -2.42097  -2.42094
  Beta  occ. eigenvalues --   -2.42077  -2.42031  -2.42006  -2.41963  -2.41943
  Beta  occ. eigenvalues --   -2.41933  -2.41925  -2.41921  -0.49206  -0.48904
  Beta  occ. eigenvalues --   -0.48789  -0.48618  -0.48300  -0.47802  -0.46253
  Beta  occ. eigenvalues --   -0.46233  -0.46060  -0.45999  -0.45954  -0.45666
  Beta  occ. eigenvalues --   -0.45477  -0.45425  -0.45416  -0.45358  -0.45193
  Beta  occ. eigenvalues --   -0.45184  -0.45175  -0.44961  -0.44880  -0.44718
  Beta  occ. eigenvalues --   -0.44479  -0.44476  -0.44383  -0.44201  -0.44056
  Beta  occ. eigenvalues --   -0.43938  -0.43802  -0.43588  -0.43507  -0.43495
  Beta  occ. eigenvalues --   -0.43347  -0.43301  -0.43063  -0.42863  -0.42815
  Beta  occ. eigenvalues --   -0.42744  -0.42736  -0.42553  -0.42464  -0.42370
  Beta  occ. eigenvalues --   -0.42075  -0.42065  -0.41833  -0.41540  -0.41244
  Beta  occ. eigenvalues --   -0.41145  -0.40924  -0.40848  -0.40842  -0.40767
  Beta  occ. eigenvalues --   -0.40686  -0.40564  -0.40559  -0.40455  -0.40305
  Beta  occ. eigenvalues --   -0.40271  -0.40239  -0.40221  -0.40067  -0.39992
  Beta  occ. eigenvalues --   -0.39917  -0.39768  -0.39718  -0.39683  -0.39612
  Beta  occ. eigenvalues --   -0.39550  -0.39523  -0.39501  -0.39453  -0.39312
  Beta  occ. eigenvalues --   -0.39257  -0.39194  -0.39155  -0.39113  -0.38822
  Beta  occ. eigenvalues --   -0.38654  -0.38569  -0.38472  -0.38291  -0.38227
  Beta  occ. eigenvalues --   -0.37837  -0.37679  -0.37572  -0.37529  -0.35134
  Beta  occ. eigenvalues --   -0.33270  -0.31333  -0.24603  -0.23867  -0.23005
  Beta  occ. eigenvalues --   -0.21110
  Beta virt. eigenvalues --   -0.07625  -0.05981  -0.04141  -0.03800  -0.02939
  Beta virt. eigenvalues --   -0.02679  -0.01899  -0.01326   0.00735   0.00739
  Beta virt. eigenvalues --    0.02096   0.02445   0.04304   0.04515   0.04602
  Beta virt. eigenvalues --    0.05102   0.05246   0.05743   0.06661   0.07027
  Beta virt. eigenvalues --    0.08103   0.09530   0.09589   0.10250   0.10875
  Beta virt. eigenvalues --    0.11040   0.11634   0.12494   0.12512   0.12640
  Beta virt. eigenvalues --    0.12996   0.13459   0.13738   0.13986   0.14185
  Beta virt. eigenvalues --    0.14328   0.14608   0.14741   0.15570   0.15695
  Beta virt. eigenvalues --    0.15877   0.15955   0.16340   0.16828   0.17216
  Beta virt. eigenvalues --    0.17400   0.17951   0.18620   0.19151   0.19525
  Beta virt. eigenvalues --    0.20014   0.20056   0.20196   0.20548   0.20615
  Beta virt. eigenvalues --    0.20759   0.21393   0.22889   0.22918   0.24571
  Beta virt. eigenvalues --    0.26360   0.26444   0.27226   0.27236   0.28018
  Beta virt. eigenvalues --    0.28599   0.28838   0.29364   0.29739   0.30104
  Beta virt. eigenvalues --    0.30193   0.30242   0.30520   0.31176   0.31725
  Beta virt. eigenvalues --    0.32288   0.32723   0.32844   0.33317   0.33443
  Beta virt. eigenvalues --    0.33886   0.34226   0.35359   0.35600   0.35737
  Beta virt. eigenvalues --    0.36137   0.36209   0.37434   0.38063   0.38327
  Beta virt. eigenvalues --    0.38746   0.38940   0.39491   0.40237   0.40452
  Beta virt. eigenvalues --    0.41048   0.41324   0.42690   0.43387   0.44211
  Beta virt. eigenvalues --    0.45268   0.45777   0.46578   0.46834   0.47055
  Beta virt. eigenvalues --    0.47627   0.47796   0.47878   0.49225   0.51282
  Beta virt. eigenvalues --    0.51706   0.52264   0.52735   0.53632   0.53634
  Beta virt. eigenvalues --    0.54593   0.55112   0.56019   0.56702   0.56727
  Beta virt. eigenvalues --    0.57291   0.58468   0.60406   0.60686   0.61735
  Beta virt. eigenvalues --    0.62684   0.62865   0.63596   0.63899   0.64756
  Beta virt. eigenvalues --    0.65131   0.65804   0.66519   0.66617   0.66930
  Beta virt. eigenvalues --    0.66957   0.67343   0.67856   0.68334   0.68459
  Beta virt. eigenvalues --    0.69492   0.69590   0.69963   0.71707   0.71777
  Beta virt. eigenvalues --    0.72910   0.74121   0.74648   0.75087   0.75245
  Beta virt. eigenvalues --    0.75487   0.75732   0.75770   0.76119   0.77043
  Beta virt. eigenvalues --    0.77503   0.78095   0.78659   0.79222   0.79666
  Beta virt. eigenvalues --    0.80323   0.80480   0.81017   0.81662   0.81734
  Beta virt. eigenvalues --    0.81941   0.82360   0.83186   0.83357   0.84185
  Beta virt. eigenvalues --    0.85301   0.85701   0.86109   0.86295   0.86986
  Beta virt. eigenvalues --    0.87489   0.88092   0.88224   0.89171   0.89328
  Beta virt. eigenvalues --    0.89648   0.90626   0.90874   0.90917   0.92758
  Beta virt. eigenvalues --    0.93448   0.94645   0.96016   0.96058   0.99407
  Beta virt. eigenvalues --    1.00236   1.01995   1.02096   1.04124   1.04689
  Beta virt. eigenvalues --    1.06167   1.06711   1.07515   1.07608   1.08145
  Beta virt. eigenvalues --    1.08266   1.09023   1.09623   1.10548   1.10845
  Beta virt. eigenvalues --    1.11946   1.13758   1.14840   1.15027   1.30808
  Beta virt. eigenvalues --    1.35760   1.37870   1.40403   2.19418   2.30222
  Beta virt. eigenvalues --    2.31903   2.36587   2.38040   2.38934   2.39239
  Beta virt. eigenvalues --    2.40931   2.42940   2.43885   2.45316   2.47005
  Beta virt. eigenvalues --    2.47432   2.49306   2.52291   2.53670   2.57594
  Beta virt. eigenvalues --    2.65843   2.65866   2.65890   2.65912   2.66895
  Beta virt. eigenvalues --    2.66976   2.66979   2.66991   2.67022   2.67098
  Beta virt. eigenvalues --    2.67116   2.67173   2.67221   2.67240   2.67264
  Beta virt. eigenvalues --    2.67326   2.67344   2.67369   2.67424   2.67450
  Beta virt. eigenvalues --    2.67457   2.67473   2.67484   2.67497   2.67527
  Beta virt. eigenvalues --    2.67574   2.67605   2.67630   2.67672   2.67699
  Beta virt. eigenvalues --    2.67720   2.67739   2.67748   2.67798   2.67851
  Beta virt. eigenvalues --    2.67863   2.67866   2.67892   2.67921   2.67967
  Beta virt. eigenvalues --    2.67990   2.68009   2.68080   2.68132   2.68209
  Beta virt. eigenvalues --    2.68240   2.68276   2.68296   2.68331   2.68362
  Beta virt. eigenvalues --    2.68362   2.68389   2.68418   2.68429   2.68462
  Beta virt. eigenvalues --    2.68490   2.68536   2.68551   2.68554   2.68581
  Beta virt. eigenvalues --    2.68628   2.68628   2.68674   2.68705   2.68737
  Beta virt. eigenvalues --    2.68834   2.68838   2.68903   2.68913   2.68982
  Beta virt. eigenvalues --    2.69020   2.69044   2.69065   2.69091   2.69148
  Beta virt. eigenvalues --    2.69161   2.69183   2.69259   2.69268   2.69309
  Beta virt. eigenvalues --    2.69334   2.69357   2.69392   2.69462   2.69551
  Beta virt. eigenvalues --    2.69611   2.69646   2.69752   2.69781   2.69993
  Beta virt. eigenvalues --    2.70100   2.70122   2.70224   2.70259   2.70464
  Beta virt. eigenvalues --    2.70562   2.70582   2.70777   2.70819   2.70899
  Beta virt. eigenvalues --    2.71083   2.71368   2.71405   2.71538   2.71543
  Beta virt. eigenvalues --    2.71798   2.71862   2.71961   2.72121   2.72485
  Beta virt. eigenvalues --    2.72742   2.72899   2.74076   2.74292   2.76826
  Beta virt. eigenvalues --    2.77008   2.79007   2.79152   2.99681  54.36171
  Beta virt. eigenvalues --   54.42633  54.43629  54.47404  54.48441  54.48626
  Beta virt. eigenvalues --   54.49109  54.51138  54.52052  54.53525  54.54521
  Beta virt. eigenvalues --   54.55787  54.57877  54.59168  54.62682  54.62727
  Beta virt. eigenvalues --   54.83510
          Condensed to atoms (all electrons):
               1          2          3          4          5          6
     1  Ag  18.640581  -0.005180  -0.062694  -0.095020   0.156147  -0.098408
     2  Ag  -0.005180  26.907034  -0.227033  -0.463523  -0.657371  -0.320854
     3  Ag  -0.062694  -0.227033  19.078363  -0.127902   0.132119   0.060662
     4  Ag  -0.095020  -0.463523  -0.127902  20.242731  -0.157430   0.067978
     5  Ag   0.156147  -0.657371   0.132119  -0.157430  20.210138  -0.172795
     6  Ag  -0.098408  -0.320854   0.060662   0.067978  -0.172795  18.817206
     7  Ag   0.071619  -0.320849  -0.046195  -0.053003  -0.055790  -0.154513
     8  Ag   0.018373   0.005827   0.002679  -0.034076  -0.129776  -0.050460
     9  Ag  -0.014607   0.143130   0.026789  -0.019748   0.030354  -0.035793
    10  Ag  -0.003862   0.143131  -0.023665  -0.137986   0.049341  -0.028444
    11  Ag   0.007235   0.264821  -0.019657  -0.158255  -0.067273  -0.046996
    12  Ag  -0.123773  -0.227029  -0.018334   0.213662  -0.035721  -0.046195
    13  Ag   0.029561   0.005828   0.094499  -0.060826  -0.012940   0.087366
    14  Ag   0.021955   0.264821  -0.048679   0.073019  -0.171546   0.046057
    15  Ag  -0.058213  -0.463526   0.213664   0.200459   0.065821  -0.053004
    16  Ag  -0.020050  -0.005182  -0.123774  -0.058213  -0.080578   0.071619
    17  Ag  -0.080579  -0.657380  -0.035722   0.065819   0.049212  -0.055785
               7          8          9         10         11         12
     1  Ag   0.071619   0.018373  -0.014607  -0.003862   0.007235  -0.123773
     2  Ag  -0.320849   0.005827   0.143130   0.143131   0.264821  -0.227029
     3  Ag  -0.046195   0.002679   0.026789  -0.023665  -0.019657  -0.018334
     4  Ag  -0.053003  -0.034076  -0.019748  -0.137986  -0.158255   0.213662
     5  Ag  -0.055790  -0.129776   0.030354   0.049341  -0.067273  -0.035721
     6  Ag  -0.154513  -0.050460  -0.035793  -0.028444  -0.046996  -0.046195
     7  Ag  18.817204   0.087368  -0.028444  -0.035794   0.046057   0.060662
     8  Ag   0.087368  18.514747   0.004803  -0.009420  -0.019685   0.094499
     9  Ag  -0.028444   0.004803  18.347153   0.055944   0.014584  -0.023665
    10  Ag  -0.035794  -0.009420   0.055944  18.347153   0.068800   0.026789
    11  Ag   0.046057  -0.019685   0.014584   0.068800  18.383574  -0.048679
    12  Ag   0.060662   0.094499  -0.023665   0.026789  -0.048679  19.078362
    13  Ag  -0.050459   0.041828  -0.009420   0.004803   0.003973   0.002679
    14  Ag  -0.046996   0.003973   0.068800   0.014583   0.005452  -0.019657
    15  Ag   0.067978  -0.060826  -0.137985  -0.019748   0.073018  -0.127901
    16  Ag  -0.098407   0.029560  -0.003862  -0.014607   0.021955  -0.062695
    17  Ag  -0.172796  -0.012940   0.049342   0.030353  -0.171548   0.132117
              13         14         15         16         17
     1  Ag   0.029561   0.021955  -0.058213  -0.020050  -0.080579
     2  Ag   0.005828   0.264821  -0.463526  -0.005182  -0.657380
     3  Ag   0.094499  -0.048679   0.213664  -0.123774  -0.035722
     4  Ag  -0.060826   0.073019   0.200459  -0.058213   0.065819
     5  Ag  -0.012940  -0.171546   0.065821  -0.080578   0.049212
     6  Ag   0.087366   0.046057  -0.053004   0.071619  -0.055785
     7  Ag  -0.050459  -0.046996   0.067978  -0.098407  -0.172796
     8  Ag   0.041828   0.003973  -0.060826   0.029560  -0.012940
     9  Ag  -0.009420   0.068800  -0.137985  -0.003862   0.049342
    10  Ag   0.004803   0.014583  -0.019748  -0.014607   0.030353
    11  Ag   0.003973   0.005452   0.073018   0.021955  -0.171548
    12  Ag   0.002679  -0.019657  -0.127901  -0.062695   0.132117
    13  Ag  18.514747  -0.019685  -0.034076   0.018373  -0.129777
    14  Ag  -0.019685  18.383574  -0.158255   0.007235  -0.067273
    15  Ag  -0.034076  -0.158255  20.242729  -0.095020  -0.157431
    16  Ag   0.018373   0.007235  -0.095020  18.640582   0.156149
    17  Ag  -0.129777  -0.067273  -0.157431   0.156149  20.210149
          Atomic-Atomic Spin Densities.
               1          2          3          4          5          6
     1  Ag   0.121563   0.005251  -0.047253  -0.040180   0.155056  -0.021846
     2  Ag   0.005251  -0.222948   0.004644   0.014564  -0.008604   0.019147
     3  Ag  -0.047253   0.004644   0.080179   0.035634  -0.124739   0.054840
     4  Ag  -0.040180   0.014564   0.035634   0.327334  -0.324632   0.034179
     5  Ag   0.155056  -0.008604  -0.124739  -0.324632   0.691494  -0.061987
     6  Ag  -0.021846   0.019147   0.054840   0.034179  -0.061987   0.045237
     7  Ag  -0.030549   0.019147   0.018378   0.080361  -0.096648   0.015996
     8  Ag  -0.024672  -0.004019   0.008673   0.017952  -0.027802   0.008996
     9  Ag   0.005332  -0.002591  -0.005500  -0.053919   0.067215  -0.004047
    10  Ag   0.001983  -0.002591  -0.004889  -0.041907   0.031751  -0.007059
    11  Ag  -0.002095   0.009971   0.003290   0.032792  -0.022349   0.006023
    12  Ag  -0.018200   0.004643   0.014097   0.084674  -0.065534   0.018378
    13  Ag  -0.024027  -0.004019   0.031002   0.013281  -0.029158   0.025664
    14  Ag  -0.006995   0.009971   0.015679   0.021583  -0.052161   0.006821
    15  Ag  -0.038712   0.014565   0.084673   0.194323  -0.303726   0.080359
    16  Ag   0.020162   0.005251  -0.018200  -0.038713   0.049380  -0.030548
    17  Ag   0.049380  -0.008604  -0.065533  -0.303727   0.295546  -0.096646
               7          8          9         10         11         12
     1  Ag  -0.030549  -0.024672   0.005332   0.001983  -0.002095  -0.018200
     2  Ag   0.019147  -0.004019  -0.002591  -0.002591   0.009971   0.004643
     3  Ag   0.018378   0.008673  -0.005500  -0.004889   0.003290   0.014097
     4  Ag   0.080361   0.017952  -0.053919  -0.041907   0.032792   0.084674
     5  Ag  -0.096648  -0.027802   0.067215   0.031751  -0.022349  -0.065534
     6  Ag   0.015996   0.008996  -0.004047  -0.007059   0.006023   0.018378
     7  Ag   0.045239   0.025664  -0.007059  -0.004047   0.006821   0.054841
     8  Ag   0.025664   0.032904  -0.001699  -0.000687   0.002163   0.031003
     9  Ag  -0.007059  -0.001699   0.010261   0.011121  -0.003365  -0.004889
    10  Ag  -0.004047  -0.000687   0.011121   0.010261  -0.003852  -0.005500
[...]
 ZZZY=             -4.2230 XXYY=          -2577.4464 XXZZ=          -2237.2366 YYZZ=          -2023.2507
 XXYZ=            -37.3177 YYXZ=              0.0000 ZZXY=              0.0000
 N-N= 6.579602735488D+03 E-N=-1.854843544923D+04  KE= 9.529631976331D+02
                          Isotropic Fermi Contact Couplings
        Atom                 a.u.       MegaHertz       Gauss      10(-4) cm-1
     1  Ag(107             0.00004      -0.00680      -0.00243      -0.00227
     2  Ag(107            -0.00000       0.00061       0.00022       0.00020
     3  Ag(107             0.00001      -0.00143      -0.00051      -0.00048
     4  Ag(107             0.00001      -0.00271      -0.00097      -0.00090
     5  Ag(107             0.00005      -0.00820      -0.00293      -0.00274
     6  Ag(107             0.00001      -0.00126      -0.00045      -0.00042
     7  Ag(107             0.00001      -0.00126      -0.00045      -0.00042
     8  Ag(107             0.00001      -0.00176      -0.00063      -0.00059
     9  Ag(107            -0.00000       0.00038       0.00014       0.00013
    10  Ag(107            -0.00000       0.00038       0.00014       0.00013
    11  Ag(107            -0.00000       0.00011       0.00004       0.00004
    12  Ag(107             0.00001      -0.00143      -0.00051      -0.00048
    13  Ag(107             0.00001      -0.00176      -0.00063      -0.00059
    14  Ag(107            -0.00000       0.00011       0.00004       0.00004
    15  Ag(107             0.00001      -0.00271      -0.00097      -0.00090
    16  Ag(107             0.00004      -0.00680      -0.00243      -0.00227
    17  Ag(107             0.00005      -0.00820      -0.00293      -0.00274
 --------------------------------------------------------
       Center         ----  Spin Dipole Couplings  ----
                      3XX-RR        3YY-RR        3ZZ-RR
 --------------------------------------------------------
     1   Atom        0.015197     -0.007206     -0.007991
     2   Atom       -0.029142      0.014651      0.014491
     3   Atom       -0.002612     -0.003628      0.006240
     4   Atom        0.006943     -0.002561     -0.004382
     5   Atom        0.015684     -0.007353     -0.008331
     6   Atom       -0.002701      0.007569     -0.004867
     7   Atom       -0.002701      0.007569     -0.004867
     8   Atom        0.003826     -0.002226     -0.001600
     9   Atom        0.000704     -0.000190     -0.000514
    10   Atom        0.000704     -0.000190     -0.000514
    11   Atom       -0.003532     -0.002079      0.005610
    12   Atom       -0.002612     -0.003628      0.006240
    13   Atom        0.003826     -0.002226     -0.001600
    14   Atom       -0.003532     -0.002079      0.005610
    15   Atom        0.006943     -0.002561     -0.004382
    16   Atom        0.015197     -0.007206     -0.007991
    17   Atom        0.015684     -0.007353     -0.008331
 --------------------------------------------------------
                        XY            XZ            YZ
 --------------------------------------------------------
     1   Atom       -0.004930      0.005176     -0.001598
     2   Atom        0.000000      0.000000     -0.005864
     3   Atom        0.001622     -0.000240     -0.006137
     4   Atom       -0.009021     -0.007107      0.004560
     5   Atom        0.003578     -0.004419     -0.000673
     6   Atom       -0.001606      0.000716     -0.004600
     7   Atom        0.001606     -0.000716     -0.004600
     8   Atom        0.006483      0.007503      0.005639
     9   Atom        0.001435      0.000402     -0.000686
    10   Atom       -0.001435     -0.000403     -0.000686
    11   Atom        0.004453      0.002503     -0.000229
    12   Atom       -0.001622      0.000240     -0.006137
    13   Atom       -0.006483     -0.007503      0.005639
    14   Atom       -0.004453     -0.002503     -0.000229
    15   Atom        0.009021      0.007106      0.004560
    16   Atom        0.004930     -0.005176     -0.001598
    17   Atom       -0.003578      0.004419     -0.000673
 --------------------------------------------------------


 ---------------------------------------------------------------------------------
              Anisotropic Spin Dipole Couplings in Principal Axis System
 ---------------------------------------------------------------------------------

       Atom             a.u.   MegaHertz   Gauss  10(-4) cm-1        Axes

              Baa    -0.0094     0.203     0.072     0.068 -0.1020  0.4328  0.8957
     1 Ag(107 Bbb    -0.0080     0.174     0.062     0.058  0.2739  0.8778 -0.3929
              Bcc     0.0174    -0.377    -0.135    -0.126  0.9563 -0.2053  0.2080
 
              Baa    -0.0291     0.632     0.226     0.211  1.0000 -0.0000 -0.0000
     2 Ag(107 Bbb     0.0087    -0.189    -0.067    -0.063  0.0000  0.7023  0.7119
              Bcc     0.0204    -0.443    -0.158    -0.148 -0.0000  0.7119 -0.7023
 
              Baa    -0.0070     0.152     0.054     0.051 -0.2994  0.8677  0.3969
     3 Ag(107 Bbb    -0.0023     0.049     0.017     0.016  0.9509  0.2374  0.1984
              Bcc     0.0093    -0.201    -0.072    -0.067 -0.0779 -0.4368  0.8962
 
              Baa    -0.0082     0.177     0.063     0.059  0.2098  0.7973 -0.5660
     4 Ag(107 Bbb    -0.0077     0.168     0.060     0.056  0.5781  0.3657  0.7294
              Bcc     0.0159    -0.345    -0.123    -0.115  0.7885 -0.4802 -0.3842
 
              Baa    -0.0091     0.198     0.071     0.066  0.1715  0.0276  0.9848
     5 Ag(107 Bbb    -0.0079     0.171     0.061     0.057 -0.1503  0.9886 -0.0016
              Bcc     0.0170    -0.369    -0.132    -0.123  0.9737  0.1477 -0.1737
 
              Baa    -0.0064     0.139     0.049     0.046 -0.0505  0.3073  0.9503
     6 Ag(107 Bbb    -0.0029     0.064     0.023     0.021  0.9883  0.1524  0.0033
              Bcc     0.0093    -0.203    -0.072    -0.068 -0.1438  0.9393 -0.3114
 
              Baa    -0.0064     0.139     0.049     0.046  0.0505  0.3073  0.9503
     7 Ag(107 Bbb    -0.0029     0.064     0.023     0.021  0.9883 -0.1524 -0.0033
              Bcc     0.0093    -0.203    -0.072    -0.068  0.1438  0.9393 -0.3114
 
              Baa    -0.0076     0.166     0.059     0.055 -0.1548 -0.6182  0.7706
     8 Ag(107 Bbb    -0.0061     0.131     0.047     0.044  0.6882 -0.6272 -0.3648
              Bcc     0.0137    -0.297    -0.106    -0.099  0.7088  0.4738  0.5225
 
              Baa    -0.0018     0.038     0.014     0.013 -0.4891  0.6859  0.5389
     9 Ag(107 Bbb    -0.0000     0.000     0.000     0.000  0.3511 -0.4108  0.8414
              Bcc     0.0018    -0.038    -0.014    -0.013  0.7985  0.6007 -0.0399
 
              Baa    -0.0018     0.038     0.014     0.013  0.4891  0.6858  0.5389
    10 Ag(107 Bbb    -0.0000     0.000     0.000     0.000 -0.3511 -0.4108  0.8414
              Bcc     0.0018    -0.038    -0.014    -0.013  0.7985 -0.6007  0.0399
 
              Baa    -0.0076     0.166     0.059     0.055  0.7680 -0.6212 -0.1558
    11 Ag(107 Bbb     0.0013    -0.028    -0.010    -0.009  0.5668  0.7725 -0.2863
              Bcc     0.0064    -0.138    -0.049    -0.046  0.2982  0.1316  0.9454
 
              Baa    -0.0070     0.152     0.054     0.051  0.2994  0.8677  0.3969
    12 Ag(107 Bbb    -0.0023     0.049     0.017     0.016  0.9509 -0.2374 -0.1984
              Bcc     0.0093    -0.201    -0.072    -0.067  0.0779 -0.4368  0.8962
 
              Baa    -0.0076     0.166     0.059     0.055  0.1548 -0.6182  0.7706
    13 Ag(107 Bbb    -0.0061     0.131     0.047     0.044  0.6882  0.6272  0.3648
              Bcc     0.0137    -0.297    -0.106    -0.099  0.7088 -0.4738 -0.5225
 
              Baa    -0.0076     0.166     0.059     0.055  0.7680  0.6212  0.1558
    14 Ag(107 Bbb     0.0013    -0.028    -0.010    -0.009 -0.5668  0.7725 -0.2863
              Bcc     0.0064    -0.138    -0.049    -0.046 -0.2982  0.1315  0.9454
 
              Baa    -0.0082     0.177     0.063     0.059 -0.2098  0.7973 -0.5660
    15 Ag(107 Bbb    -0.0077     0.168     0.060     0.056 -0.5781  0.3657  0.7294
              Bcc     0.0159    -0.345    -0.123    -0.115  0.7885  0.4802  0.3842
 
              Baa    -0.0094     0.203     0.072     0.068  0.1020  0.4328  0.8957
    16 Ag(107 Bbb    -0.0080     0.174     0.062     0.058 -0.2739  0.8778 -0.3929
              Bcc     0.0174    -0.377    -0.135    -0.126  0.9563  0.2053 -0.2080
 
              Baa    -0.0091     0.198     0.071     0.066 -0.1715  0.0276  0.9848
    17 Ag(107 Bbb    -0.0079     0.171     0.061     0.057  0.1503  0.9886 -0.0016
              Bcc     0.0170    -0.369    -0.132    -0.123  0.9737 -0.1477  0.1737
 

 ---------------------------------------------------------------------------------

 No NMR shielding tensors so no spin-rotation constants.
 Leave Link  601 at Wed Mar  5 08:09:26 2025, MaxMem=  2097152000 cpu:               1.5 elap:               0.4
 (Enter /nvme/h/buildsets/eb_nepheli/software/Gaussian/16.C.01-AVX2/g16/l701.exe)
 ... and contract with generalized density number  0.
 Compute integral first derivatives.
 R6Disp: Adding Grimme-D2 dispersion energy 1st derivatives to the gradient.
   1 Symmetry operations used in ECPInt.
 ECPInt:  NShTT=   17578 NPrTT=   52581 LenC2=   16685 LenP2D=   40526.
 LDataN:  DoStor=T MaxTD1= 8 Len=  415
 Leave Link  701 at Wed Mar  5 08:09:39 2025, MaxMem=  2097152000 cpu:              48.5 elap:              12.2
 (Enter /nvme/h/buildsets/eb_nepheli/software/Gaussian/16.C.01-AVX2/g16/l702.exe)
 L702 exits ... SP integral derivatives will be done elsewhere.
 Leave Link  702 at Wed Mar  5 08:09:39 2025, MaxMem=  2097152000 cpu:               0.0 elap:               0.0
 (Enter /nvme/h/buildsets/eb_nepheli/software/Gaussian/16.C.01-AVX2/g16/l703.exe)
 Integral derivatives from FoFJK, PRISM(SPDF).
 Compute integral first derivatives, UseDBF=F ICtDFT=           0.
 Calling FoFJK, ICntrl=      2127 FMM=F ISym2X=0 I1Cent= 0 IOpClX= 1 NMat=1 NMatS=1 NMatT=0.
 FoFJK:  IHMeth= 1 ICntrl=    2127 DoSepK=T KAlg= 0 I1Cent=           0 FoldK=F
 IRaf=         1 NMat=       1 IRICut=       1 DoRegI=T DoRafI=F ISym2E= 0 IDoP0=0 IntGTp=1.
 FoFCou: FMM=F IPFlag=           0 FMFlag=      100000 FMFlg1=         800
         NFxFlg=           0 DoJE=F BraDBF=F KetDBF=F FulRan=T
         wScrn=  0.000000 ICntrl=      2527 IOpCl=  0 I1Cent=           0 NGrid=           0
         NMat0=    1 NMatS0=      1 NMatT0=    0 NMatD0=    1 NMtDS0=    0 NMtDT0=    0
 Symmetry not used in FoFCou.
 Defaulting to unpruned grid for atomic number  47.
 Defaulting to unpruned grid for atomic number  47.
 Defaulting to unpruned grid for atomic number  47.
 Defaulting to unpruned grid for atomic number  47.
 Leave Link  703 at Wed Mar  5 08:14:29 2025, MaxMem=  2097152000 cpu:            1156.1 elap:             290.5
 (Enter /nvme/h/buildsets/eb_nepheli/software/Gaussian/16.C.01-AVX2/g16/l716.exe)
 Dipole        =-5.68316902D-01-8.62908013D-07-2.62353654D-06
 ***** Axes restored to original set *****
 -------------------------------------------------------------------
 Center     Atomic                   Forces (Hartrees/Bohr)
 Number     Number              X              Y              Z
 -------------------------------------------------------------------
      1       47          -0.000003186   -0.000019209    0.000000474
      2       47           0.000011484   -0.000000046    0.000000188
      3       47          -0.000032592    0.000021394   -0.000006051
      4       47           0.000004378   -0.000053781   -0.000061685
      5       47           0.000005229   -0.000020459    0.000050154
      6       47           0.000000706    0.000001798   -0.000011655
      7       47           0.000000738   -0.000001808    0.000011626
      8       47           0.000017628   -0.000010004   -0.000009257
      9       47          -0.000030736    0.000031498    0.000000777
     10       47          -0.000030771   -0.000031514   -0.000000731
     11       47           0.000032777    0.000035142    0.000010637
     12       47          -0.000032583   -0.000021329    0.000005971
     13       47           0.000017637    0.000010029    0.000009305
     14       47           0.000032783   -0.000035087   -0.000010558
     15       47           0.000004417    0.000053699    0.000061662
     16       47          -0.000003186    0.000019182   -0.000000533
     17       47           0.000005278    0.000020495   -0.000050325
 -------------------------------------------------------------------
 Cartesian Forces:  Max     0.000061685 RMS     0.000025573
 Z-matrix is all fixed cartesians, so copy forces.
 Leave Link  716 at Wed Mar  5 08:14:30 2025, MaxMem=  2097152000 cpu:               0.1 elap:               0.0
 (Enter /nvme/h/buildsets/eb_nepheli/software/Gaussian/16.C.01-AVX2/g16/l103.exe)

 GradGradGradGradGradGradGradGradGradGradGradGradGradGradGradGradGradGrad
 Berny optimization.
 Search for a local minimum.
 Step number   1 out of a maximum of    2
 All quantities printed in internal units (Hartrees-Bohrs-Radians)
 Second derivative matrix not updated -- first step.
 ITU=  0
     Eigenvalues ---    0.13690   0.14599   0.14669   0.15153   0.16655
     Eigenvalues ---    0.21258   0.22084   0.23072   0.25686   0.27998
     Eigenvalues ---    0.28781   0.30070   0.30751   0.30955   0.34426
     Eigenvalues ---    0.35172   0.35618   0.37417   0.39445   0.40671
     Eigenvalues ---    0.42645   0.42674   0.44058   0.45877   0.47839
     Eigenvalues ---    0.49270   0.50811   0.52702   0.54889   0.55491
     Eigenvalues ---    0.56416   0.58733   0.59555   0.63038   0.64023
     Eigenvalues ---    0.64688   0.68739   0.70410   0.71595   0.72110
     Eigenvalues ---    0.83425   0.84992   2.41855   2.56332   3.46158
 Angle between quadratic step and forces=  32.10 degrees.
 Linear search not attempted -- first point.
 B after Tr=    -0.000000   -0.000000    0.000000
         Rot=    1.000000   -0.000000   -0.000000    0.000000 Ang=   0.00 deg.
 Variable       Old X    -DE/DX   Delta X   Delta X   Delta X     New X
                                 (Linear)    (Quad)   (Total)
    X1        4.37168  -0.00000   0.00000   0.00000   0.00000   4.37168
    Y1        3.39392  -0.00002   0.00000  -0.00005  -0.00005   3.39388
    Z1        2.99169   0.00000   0.00000   0.00002   0.00002   2.99171
    X2        1.73631   0.00001   0.00000   0.00001   0.00001   1.73632
    Y2        0.00000  -0.00000   0.00000  -0.00000  -0.00000   0.00000
    Z2       -0.00000   0.00000   0.00000   0.00000   0.00000  -0.00000
    X3        1.36736  -0.00003   0.00000  -0.00005  -0.00005   1.36731
    Y3        5.13620   0.00002   0.00000   0.00003   0.00003   5.13622
    Z3       -1.52244  -0.00001   0.00000  -0.00002  -0.00002  -1.52246
    X4       -3.11743   0.00000   0.00000  -0.00002  -0.00002  -3.11745
    Y4       -1.96061  -0.00005   0.00000  -0.00009  -0.00009  -1.96070
    Z4        2.82679  -0.00006   0.00000  -0.00008  -0.00008   2.82672
    X5       -1.29742   0.00001   0.00000  -0.00001  -0.00001  -1.29743
    Y5        3.19149  -0.00002   0.00000  -0.00003  -0.00003   3.19146
    Z5        3.20234   0.00005   0.00000   0.00006   0.00006   3.20239
    X6        1.57246   0.00000   0.00000  -0.00001  -0.00001   1.57245
    Y6        0.95067   0.00000   0.00000   0.00002   0.00002   0.95069
    Z6       -5.16298  -0.00001   0.00000  -0.00004  -0.00004  -5.16301
    X7        1.57246   0.00000   0.00000  -0.00001  -0.00001   1.57245
    Y7       -0.95068  -0.00000   0.00000  -0.00002  -0.00002  -0.95069
    Z7        5.16297   0.00001   0.00000   0.00004   0.00004   5.16301
    X8        6.07331   0.00002   0.00000   0.00005   0.00005   6.07336
    Y8       -2.02419  -0.00001   0.00000  -0.00003  -0.00003  -2.02422
    Z8        2.23604  -0.00001   0.00000  -0.00001  -0.00001   2.23603
    X9       -6.27758  -0.00003   0.00000  -0.00011  -0.00011  -6.27769
    Y9        2.17260   0.00003   0.00000   0.00012   0.00012   2.17272
    Z9        1.62559   0.00000   0.00000  -0.00003  -0.00003   1.62556
   X10       -6.27758  -0.00003   0.00000  -0.00011  -0.00011  -6.27770
   Y10       -2.17260  -0.00003   0.00000  -0.00012  -0.00012  -2.17271
   Z10       -1.62559  -0.00000   0.00000   0.00003   0.00003  -1.62556
   X11       -3.56053   0.00003   0.00000   0.00014   0.00014  -3.56039
   Y11       -6.64389   0.00004   0.00000   0.00009   0.00009  -6.64380
   Z11        0.23118   0.00001   0.00000   0.00010   0.00010   0.23128
   X12        1.36735  -0.00003   0.00000  -0.00005  -0.00005   1.36731
   Y12       -5.13620  -0.00002   0.00000  -0.00003  -0.00003  -5.13622
   Z12        1.52244   0.00001   0.00000   0.00002   0.00002   1.52246
   X13        6.07332   0.00002   0.00000   0.00005   0.00005   6.07336
   Y13        2.02418   0.00001   0.00000   0.00003   0.00003   2.02421
   Z13       -2.23605   0.00001   0.00000   0.00001   0.00001  -2.23604
   X14       -3.56053   0.00003   0.00000   0.00014   0.00014  -3.56039
   Y14        6.64389  -0.00004   0.00000  -0.00009  -0.00009   6.64380
   Z14       -0.23118  -0.00001   0.00000  -0.00010  -0.00010  -0.23128
   X15       -3.11743   0.00000   0.00000  -0.00002  -0.00002  -3.11745
   Y15        1.96062   0.00005   0.00000   0.00009   0.00009   1.96070
   Z15       -2.82679   0.00006   0.00000   0.00008   0.00008  -2.82672
   X16        4.37168  -0.00000   0.00000   0.00000   0.00000   4.37168
   Y16       -3.39393   0.00002   0.00000   0.00005   0.00005  -3.39388
   Z16       -2.99169  -0.00000   0.00000  -0.00002  -0.00002  -2.99170
   X17       -1.29742   0.00001   0.00000  -0.00001  -0.00001  -1.29743
   Y17       -3.19149   0.00002   0.00000   0.00003   0.00003  -3.19146
   Z17       -3.20233  -0.00005   0.00000  -0.00006  -0.00006  -3.20239
         Item               Value     Threshold  Converged?
 Maximum Force            0.000062     0.000450     YES
 RMS     Force            0.000026     0.000300     YES
 Maximum Displacement     0.000139     0.001800     YES
 RMS     Displacement     0.000061     0.001200     YES
 Predicted change in Energy=-3.354917D-08
 Optimization completed.
    -- Stationary point found.
 GradGradGradGradGradGradGradGradGradGradGradGradGradGradGradGradGradGrad

 Leave Link  103 at Wed Mar  5 08:14:30 2025, MaxMem=  2097152000 cpu:               0.3 elap:               0.1
 (Enter /nvme/h/buildsets/eb_nepheli/software/Gaussian/16.C.01-AVX2/g16/l9999.exe)
 Unable to Open any file for archive entry.
 1\1\GINC-NE22\Force\UwB97XD\def2SVP\Ag17(2)\NPATSALIDIS\05-Mar-2025\0\
 \#p wb97xd/def2SVP scf(xqc) scfcyc=999 force\\Template file\\0,2\Ag,2.
 313394,1.795987,1.583135\Ag,0.918815,0.000001,-0.000002\Ag,0.723574,2.
 717958,-0.805638\Ag,-1.649672,-1.037511,1.495874\Ag,-0.686565,1.688864
 ,1.694604\Ag,0.832108,0.503075,-2.732129\Ag,0.832108,-0.503076,2.73212
 7\Ag,3.213859,-1.071153,1.183264\Ag,-3.321953,1.149692,0.860225\Ag,-3.
 321954,-1.149689,-0.860227\Ag,-1.884153,-3.515793,0.122334\Ag,0.723571
 ,-2.717958,0.805641\Ag,3.21386,1.071151,-1.183268\Ag,-1.88415,3.515793
 ,-0.122335\Ag,-1.649671,1.037513,-1.495875\Ag,2.313393,-1.79599,-1.583
 133\Ag,-0.686566,-1.688864,-1.6946\\Version=ES64L-G16RevC.01\State=2-A
 \HF=-2499.6344881\S2=0.763185\S2-1=0.\S2A=0.750137\RMSD=7.240e-09\RMSF
 =2.557e-05\Dipole=0.5683169,0.0000008,-0.0000027\Quadrupole=1.9018847,
 0.2536131,-2.1554978,0.0000104,0.000004,1.4840762\PG=C01 [X(Ag17)]\\@
 The archive entry for this job was punched.


 ACCORDING TO HEN3RY, LIFE IS MUCH LIKE A SEWER........
 YOU GET OUT OF IT JUST WHAT YOU PUT INTO IT...........
                         TOM LEHRER - (THE 3 IS SILENT)
 Job cpu time:       0 days  2 hours  6 minutes 52.5 seconds.
 Elapsed time:       0 days  0 hours 31 minutes 51.9 seconds.
 File lengths (MBytes):  RWF=    264 Int=      0 D2E=      0 Chk=     21 Scr=      1
 Normal termination of Gaussian 16 at Wed Mar  5 08:14:30 2025.
