 Entering Gaussian System, Link 0=g16
 Initial command:
 /nvme/h/buildsets/eb_nepheli/software/Gaussian/16.C.01-AVX2/g16/l1.exe "/onyx/data/simea/nikolas/postDoc/Active-Learning-Package/Ag-tr/init_data/Ag18/Gau-82830.inp" -scrdir="/onyx/data/simea/nikolas/postDoc/Active-Learning-Package/Ag-tr/init_data/Ag18/"
 Entering Link 1 = /nvme/h/buildsets/eb_nepheli/software/Gaussian/16.C.01-AVX2/g16/l1.exe PID=     82831.
  
 Copyright (c) 1988-2019, Gaussian, Inc.  All Rights Reserved.
  
 This is part of the Gaussian(R) 16 program.  It is based on
 the Gaussian(R) 09 system (copyright 2009, Gaussian, Inc.),
 the Gaussian(R) 03 system (copyright 2003, Gaussian, Inc.),
 the Gaussian(R) 98 system (copyright 1998, Gaussian, Inc.),
 the Gaussian(R) 94 system (copyright 1995, Gaussian, Inc.),
 the Gaussian 92(TM) system (copyright 1992, Gaussian, Inc.),
 the Gaussian 90(TM) system (copyright 1990, Gaussian, Inc.),
 the Gaussian 88(TM) system (copyright 1988, Gaussian, Inc.),
 the Gaussian 86(TM) system (copyright 1986, Carnegie Mellon
 University), and the Gaussian 82(TM) system (copyright 1983,
 Carnegie Mellon University). Gaussian is a federally registered
 trademark of Gaussian, Inc.
  
 This software contains proprietary and confidential information,
 including trade secrets, belonging to Gaussian, Inc.
  
 This software is provided under written license and may be
 used, copied, transmitted, or stored only in accord with that
 written license.
  
 The following legend is applicable only to US Government
 contracts under FAR:
  
                    RESTRICTED RIGHTS LEGEND
  
 Use, reproduction and disclosure by the US Government is
 subject to restrictions as set forth in subparagraphs (a)
 and (c) of the Commercial Computer Software - Restricted
 Rights clause in FAR 52.227-19.
  
 Gaussian, Inc.
 340 Quinnipiac St., Bldg. 40, Wallingford CT 06492
  
  
 ---------------------------------------------------------------
 Warning -- This program may not be used in any manner that
 competes with the business of Gaussian, Inc. or will provide
 assistance to any competitor of Gaussian, Inc.  The licensee
 of this program is prohibited from giving any competitor of
 Gaussian, Inc. access to this program.  By using this program,
 the user acknowledges that Gaussian, Inc. is engaged in the
 business of creating and licensing software in the field of
 computational chemistry and represents and warrants to the
 licensee that it is not a competitor of Gaussian, Inc. and that
 it will not use this program in any manner prohibited above.
 ---------------------------------------------------------------
  

 Cite this work as:
 Gaussian 16, Revision C.01,
 M. J. Frisch, G. W. Trucks, H. B. Schlegel, G. E. Scuseria, 
 M. A. Robb, J. R. Cheeseman, G. Scalmani, V. Barone, 
 G. A. Petersson, H. Nakatsuji, X. Li, M. Caricato, A. V. Marenich, 
 J. Bloino, B. G. Janesko, R. Gomperts, B. Mennucci, H. P. Hratchian, 
 J. V. Ortiz, A. F. Izmaylov, J. L. Sonnenberg, D. Williams-Young, 
 F. Ding, F. Lipparini, F. Egidi, J. Goings, B. Peng, A. Petrone, 
 T. Henderson, D. Ranasinghe, V. G. Zakrzewski, J. Gao, N. Rega, 
 G. Zheng, W. Liang, M. Hada, M. Ehara, K. Toyota, R. Fukuda, 
 J. Hasegawa, M. Ishida, T. Nakajima, Y. Honda, O. Kitao, H. Nakai, 
 T. Vreven, K. Throssell, J. A. Montgomery, Jr., J. E. Peralta, 
 F. Ogliaro, M. J. Bearpark, J. J. Heyd, E. N. Brothers, K. N. Kudin, 
 V. N. Staroverov, T. A. Keith, R. Kobayashi, J. Normand, 
 K. Raghavachari, A. P. Rendell, J. C. Burant, S. S. Iyengar, 
 J. Tomasi, M. Cossi, J. M. Millam, M. Klene, C. Adamo, R. Cammi, 
 J. W. Ochterski, R. L. Martin, K. Morokuma, O. Farkas, 
 J. B. Foresman, and D. J. Fox, Gaussian, Inc., Wallingford CT, 2019.
 
 ******************************************
 Gaussian 16:  ES64L-G16RevC.01  3-Jul-2019
                 5-Mar-2025 
 ******************************************
 %nprocshared=4
 Will use up to    4 processors via shared memory.
 %mem=16000MB
 -------------------------------------------
 #p wb97xd/def2SVP scf(xqc) scfcyc=999 force
 -------------------------------------------
 1/10=7,30=1,38=1/1,3;
 2/12=2,17=6,18=5,40=1/2;
 3/5=43,7=101,11=2,25=1,30=1,71=1,74=-58/1,2,3;
 4//1;
 5/5=2,7=999,8=3,13=1,38=5/2,8;
 6/7=2,8=2,9=2,10=2,28=1/1;
 7/29=1/1,2,3,16;
 1/10=7,30=1/3;
 99//99;
 Leave Link    1 at Wed Mar  5 05:57:32 2025, MaxMem=  2097152000 cpu:               0.2 elap:               0.1
 (Enter /nvme/h/buildsets/eb_nepheli/software/Gaussian/16.C.01-AVX2/g16/l101.exe)
 -------------
 Template file
 -------------
 Symbolic Z-matrix:
 Charge =  0 Multiplicity = 1
 Ag                    3.9879   -0.8093   -0.79027 
 Ag                    1.40494  -1.32248  -1.62256 
 Ag                    2.41152   1.47644  -1.28114 
 Ag                    0.00001   0.96742   2.82106 
 Ag                   -2.41148   1.47649  -1.2811 
 Ag                    0.        0.8525   -2.77135 
 Ag                    1.54561   2.85794   1.26538 
 Ag                    2.36568   0.05503   1.52002 
 Ag                   -3.98794  -0.80921  -0.79027 
 Ag                   -2.36566   0.05509   1.51999 
 Ag                   -0.00005  -3.48102  -0.47721 
 Ag                    0.00003   0.83069   0.05079 
 Ag                    0.00004   3.30399  -1.26294 
 Ag                    2.44376  -2.65501   0.81078 
 Ag                   -1.40498  -1.32243  -1.62254 
 Ag                   -1.54552   2.85798   1.26537 
 Ag                   -2.44383  -2.65495   0.81078 
 Ag                   -0.00002  -1.67918   1.83521 
 
 ITRead=  0  0  0  0  0  0  0  0  0  0  0  0  0  0  0  0  0  0
 MicOpt= -1 -1 -1 -1 -1 -1 -1 -1 -1 -1 -1 -1 -1 -1 -1 -1 -1 -1
 NAtoms=     18 NQM=       18 NQMF=       0 NMMI=      0 NMMIF=      0
                NMic=       0 NMicF=      0.
                    Isotopes and Nuclear Properties:
 (Nuclear quadrupole moments (NQMom) in fm**2, nuclear magnetic moments (NMagM)
  in nuclear magnetons)

  Atom         1           2           3           4           5           6           7           8           9          10
 IAtWgt=         107         107         107         107         107         107         107         107         107         107
 AtmWgt= 106.9050900 106.9050900 106.9050900 106.9050900 106.9050900 106.9050900 106.9050900 106.9050900 106.9050900 106.9050900
 NucSpn=           1           1           1           1           1           1           1           1           1           1
 AtZEff=  -0.0000000  -0.0000000  -0.0000000  -0.0000000  -0.0000000  -0.0000000  -0.0000000  -0.0000000  -0.0000000  -0.0000000
 NQMom=    0.0000000   0.0000000   0.0000000   0.0000000   0.0000000   0.0000000   0.0000000   0.0000000   0.0000000   0.0000000
 NMagM=   -0.1135700  -0.1135700  -0.1135700  -0.1135700  -0.1135700  -0.1135700  -0.1135700  -0.1135700  -0.1135700  -0.1135700
 AtZNuc=  47.0000000  47.0000000  47.0000000  47.0000000  47.0000000  47.0000000  47.0000000  47.0000000  47.0000000  47.0000000

  Atom        11          12          13          14          15          16          17          18
 IAtWgt=         107         107         107         107         107         107         107         107
 AtmWgt= 106.9050900 106.9050900 106.9050900 106.9050900 106.9050900 106.9050900 106.9050900 106.9050900
 NucSpn=           1           1           1           1           1           1           1           1
 AtZEff=  -0.0000000  -0.0000000  -0.0000000  -0.0000000  -0.0000000  -0.0000000  -0.0000000  -0.0000000
 NQMom=    0.0000000   0.0000000   0.0000000   0.0000000   0.0000000   0.0000000   0.0000000   0.0000000
 NMagM=   -0.1135700  -0.1135700  -0.1135700  -0.1135700  -0.1135700  -0.1135700  -0.1135700  -0.1135700
 AtZNuc=  47.0000000  47.0000000  47.0000000  47.0000000  47.0000000  47.0000000  47.0000000  47.0000000
 Leave Link  101 at Wed Mar  5 05:57:32 2025, MaxMem=  2097152000 cpu:               0.1 elap:               0.1
 (Enter /nvme/h/buildsets/eb_nepheli/software/Gaussian/16.C.01-AVX2/g16/l103.exe)

 GradGradGradGradGradGradGradGradGradGradGradGradGradGradGradGradGradGrad
 Berny optimization.
 Initialization pass.
 Trust Radius=3.00D-01 FncErr=1.00D-07 GrdErr=1.00D-07 EigMax=2.50D+02 EigMin=1.00D-04
 Number of steps in this run=      2 maximum allowed number of steps=      2.
 GradGradGradGradGradGradGradGradGradGradGradGradGradGradGradGradGradGrad

 Leave Link  103 at Wed Mar  5 05:57:32 2025, MaxMem=  2097152000 cpu:               0.1 elap:               0.0
 (Enter /nvme/h/buildsets/eb_nepheli/software/Gaussian/16.C.01-AVX2/g16/l202.exe)
                          Input orientation:                          
 ---------------------------------------------------------------------
 Center     Atomic      Atomic             Coordinates (Angstroms)
 Number     Number       Type             X           Y           Z
 ---------------------------------------------------------------------
      1         47           0        3.987896   -0.809300   -0.790271
      2         47           0        1.404937   -1.322475   -1.622563
      3         47           0        2.411519    1.476443   -1.281136
      4         47           0        0.000011    0.967417    2.821055
      5         47           0       -2.411478    1.476492   -1.281103
      6         47           0        0.000004    0.852498   -2.771345
      7         47           0        1.545606    2.857937    1.265381
      8         47           0        2.365678    0.055028    1.520016
      9         47           0       -3.987939   -0.809205   -0.790266
     10         47           0       -2.365663    0.055092    1.519986
     11         47           0       -0.000047   -3.481022   -0.477214
     12         47           0        0.000033    0.830688    0.050786
     13         47           0        0.000038    3.303991   -1.262936
     14         47           0        2.443755   -2.655008    0.810775
     15         47           0       -1.404979   -1.322430   -1.622535
     16         47           0       -1.545521    2.857984    1.265373
     17         47           0       -2.443830   -2.654949    0.810783
     18         47           0       -0.000021   -1.679180    1.835212
 ---------------------------------------------------------------------
                    Distance matrix (angstroms):
                    1          2          3          4          5
     1  Ag   0.000000
     2  Ag   2.761836   0.000000
     3  Ag   2.819669   2.993948   0.000000
     4  Ag   5.665830   5.192607   4.785650   0.000000
     5  Ag   6.813057   4.745085   4.822997   4.785618   0.000000
     6  Ag   4.752842   2.832674   2.902660   5.593581   2.902660
     7  Ag   4.862007   5.082898   3.023753   2.895350   4.904231
     8  Ag   2.952301   3.563192   3.141492   2.849831   5.717346
     9  Ag   7.975835   5.480810   6.813091   5.665842   2.819674
    10  Ag   6.815583   5.098110   5.717341   2.849830   3.141429
    11  Ag   4.810384   2.818711   5.571212   5.537796   5.571192
    12  Ag   4.393175   3.067566   2.829537   2.773641   2.829554
    13  Ag   5.748529   4.848429   3.025806   4.705163   3.025804
    14  Ag   2.890391   2.962418   4.630985   4.809893   6.709585
    15  Ag   5.480791   2.809916   4.745092   5.192580   2.993924
    16  Ag   6.949342   5.875510   4.904236   2.895351   3.023730
    17  Ag   6.880181   4.744435   6.709615   4.809895   4.630965
    18  Ag   4.853178   3.749314   5.048278   2.824245   5.048248
                    6          7          8          9         10
     6  Ag   0.000000
     7  Ag   4.765063   0.000000
     8  Ag   4.964690   2.931494   0.000000
     9  Ag   4.752854   6.949369   6.815625   0.000000
    10  Ag   4.964651   4.818588   4.731341   2.952296   0.000000
    11  Ag   4.903308   6.753376   4.699918   4.810394   4.699899
    12  Ag   2.822215   2.823787   2.890772   4.393238   2.890781
    13  Ag   2.878388   2.996687   4.888439   5.748544   4.888409
    14  Ag   5.577284   5.604097   2.802394   6.880190   5.565799
    15  Ag   2.832676   5.875498   5.098124   2.761839   3.563133
    16  Ag   4.765051   3.091127   4.818598   4.862030   2.931495
    17  Ag   5.577289   6.820130   5.565820   2.890398   2.802392
    18  Ag   5.256402   4.826914   2.950145   4.853193   2.950140
                   11         12         13         14         15
    11  Ag   0.000000
    12  Ag   4.343918   0.000000
    13  Ag   6.830356   2.800552   0.000000
    14  Ag   2.883294   4.324285   6.766217   0.000000
    15  Ag   2.818708   3.067569   4.848418   4.744419   0.000000
    16  Ag   6.753377   2.823807   2.996668   6.820122   5.082876
    17  Ag   2.883298   4.324318   6.766223   4.887585   2.962407
    18  Ag   2.931544   3.079548   5.867752   2.823783   3.749292
                   16         17         18
    16  Ag   0.000000
    17  Ag   5.604109   0.000000
    18  Ag   4.826919   2.823789   0.000000
 Stoichiometry    Ag18
 Framework group  C1[X(Ag18)]
 Deg. of freedom    48
 Full point group                 C1      NOp   1
 Largest Abelian subgroup         C1      NOp   1
 Largest concise Abelian subgroup C1      NOp   1
                         Standard orientation:                         
 ---------------------------------------------------------------------
 Center     Atomic      Atomic             Coordinates (Angstroms)
 Number     Number       Type             X           Y           Z
 ---------------------------------------------------------------------
      1         47           0        3.987893   -0.800762   -0.798937
      2         47           0        1.404932   -1.304937   -1.636705
      3         47           0        2.411525    1.490139   -1.265168
      4         47           0        0.000015    0.936992    2.831306
      5         47           0       -2.411472    1.490208   -1.265134
      6         47           0        0.000008    0.882282   -2.762007
      7         47           0        1.545618    2.844143    1.296074
      8         47           0        2.365678    0.038652    1.520520
      9         47           0       -3.987942   -0.800634   -0.798931
     10         47           0       -2.365663    0.038736    1.520491
     11         47           0       -0.000061   -3.475683   -0.514660
     12         47           0        0.000037    0.830093    0.059726
     13         47           0        0.000052    3.317395   -1.227295
     14         47           0        2.443744   -2.663592    0.782147
     15         47           0       -1.404984   -1.304881   -1.636677
     16         47           0       -1.545509    2.844203    1.296066
     17         47           0       -2.443841   -2.663513    0.782156
     18         47           0       -0.000028   -1.698839    1.817029
 ---------------------------------------------------------------------
 Rotational constants (GHZ):           0.0439427           0.0410848           0.0330315
 Leave Link  202 at Wed Mar  5 05:57:32 2025, MaxMem=  2097152000 cpu:               0.0 elap:               0.0
 (Enter /nvme/h/buildsets/eb_nepheli/software/Gaussian/16.C.01-AVX2/g16/l301.exe)
 Standard basis: def2SVP (5D, 7F)
 Ernie: Thresh=  0.10000D-02 Tol=  0.10000D-05 Strict=F.
 There are   648 symmetry adapted cartesian basis functions of A   symmetry.
 There are   558 symmetry adapted basis functions of A   symmetry.
   558 basis functions,  1170 primitive gaussians,   648 cartesian basis functions
   171 alpha electrons      171 beta electrons
       nuclear repulsion energy      7274.2247673287 Hartrees.
 IExCor= 4639 DFT=T Ex+Corr=wB97XD ExCW=0 ScaHFX=  1.000000
 ScaDFX=  1.000000  1.000000  1.000000  1.000000 ScalE2=  1.000000  1.000000
 IRadAn=      5 IRanWt=     -1 IRanGd=            0 ICorTp=0 IEmpDi=121
 HFx  wShort=  0.000000 wLong=  0.200000 cFull=  0.222036 cShort=  0.000000 cLong=  0.777964
 DFx  wShort=  0.000000 wLong=  0.200000 cFull=  0.000000 cShort=  0.000000 cLong=  1.000000
 NAtoms=   18 NActive=   18 NUniq=   18 SFac= 1.00D+00 NAtFMM=   60 NAOKFM=F Big=F
 Integral buffers will be    131072 words long.
 Raffenetti 2 integral format.
 Two-electron integral symmetry is turned on.
 R6Disp:  Grimme-D2 Dispersion energy=       -0.0861501491 Hartrees.
 Nuclear repulsion after empirical dispersion term =     7274.1386171796 Hartrees.
 Leave Link  301 at Wed Mar  5 05:57:32 2025, MaxMem=  2097152000 cpu:               0.1 elap:               0.0
 (Enter /nvme/h/buildsets/eb_nepheli/software/Gaussian/16.C.01-AVX2/g16/l302.exe)
 NPDir=0 NMtPBC=     1 NCelOv=     1 NCel=       1 NClECP=     1 NCelD=      1
         NCelK=      1 NCelE2=     1 NClLst=     1 CellRange=     0.0.
 One-electron integrals computed using PRISM.
 One-electron integral symmetry used in STVInt
   1 Symmetry operations used in ECPInt.
 ECPInt:  NShTT=   19701 NPrTT=   58923 LenC2=   18611 LenP2D=   44875.
 LDataN:  DoStor=T MaxTD1= 7 Len=  274
 NBasis=   558 RedAO= T EigKep=  6.29D-05  NBF=   558
 NBsUse=   558 1.00D-06 EigRej= -1.00D+00 NBFU=   558
 Precomputing XC quadrature grid using
 IXCGrd= 4 IRadAn=           5 IRanWt=          -1 IRanGd=           0 AccXCQ= 0.00D+00.
 Defaulting to unpruned grid for atomic number  47.
 Defaulting to unpruned grid for atomic number  47.
 Defaulting to unpruned grid for atomic number  47.
 Defaulting to unpruned grid for atomic number  47.
 Generated NRdTot=       0 NPtTot=           0 NUsed=           0 NTot=          32
 NSgBfM=   647   647   647   647   647 MxSgAt=    18 MxSgA2=    18.
 Leave Link  302 at Wed Mar  5 05:57:36 2025, MaxMem=  2097152000 cpu:              14.9 elap:               3.8
 (Enter /nvme/h/buildsets/eb_nepheli/software/Gaussian/16.C.01-AVX2/g16/l303.exe)
 DipDrv:  MaxL=1.
 Leave Link  303 at Wed Mar  5 05:57:36 2025, MaxMem=  2097152000 cpu:               0.1 elap:               0.1
 (Enter /nvme/h/buildsets/eb_nepheli/software/Gaussian/16.C.01-AVX2/g16/l401.exe)
 ExpMin= 3.75D-02 ExpMax= 9.09D+00 ExpMxC= 9.09D+00 IAcc=3 IRadAn=         5 AccDes= 0.00D+00
 Harris functional with IExCor= 4639 and IRadAn=       5 diagonalized for initial guess.
 HarFok:  IExCor= 4639 AccDes= 0.00D+00 IRadAn=         5 IDoV= 1 UseB2=F ITyADJ=14
 ICtDFT=  3500011 ScaDFX=  1.000000  1.000000  1.000000  1.000000
 Defaulting to unpruned grid for atomic number  47.
 FoFCou: FMM=F IPFlag=           0 FMFlag=      100000 FMFlg1=           0
         NFxFlg=           0 DoJE=T BraDBF=F KetDBF=T FulRan=T
         wScrn=  0.000000 ICntrl=       500 IOpCl=  0 I1Cent=   200000004 NGrid=           0
         NMat0=    1 NMatS0=      1 NMatT0=    0 NMatD0=    1 NMtDS0=    0 NMtDT0=    0
 Petite list used in FoFCou.
 Harris En= -2575.99691248111    
 JPrj=0 DoOrth=F DoCkMO=F.
 Leave Link  401 at Wed Mar  5 05:57:41 2025, MaxMem=  2097152000 cpu:              17.0 elap:               4.3
 (Enter /nvme/h/buildsets/eb_nepheli/software/Gaussian/16.C.01-AVX2/g16/l502.exe)
 Integral symmetry usage will be decided dynamically.
 Closed shell SCF:
 Using DIIS extrapolation, IDIIS=  1040.
 NGot=  2097152000 LenX=  2096302234 LenY=  2095881682
 Requested convergence on RMS density matrix=1.00D-08 within 128 cycles.
 Requested convergence on MAX density matrix=1.00D-06.
 Requested convergence on             energy=1.00D-06.
 No special actions if energy rises.
 Fock matrices will be formed incrementally for  20 cycles.

 Cycle   1  Pass 1  IDiag  1:
 FoFJK:  IHMeth= 1 ICntrl=       0 DoSepK=T KAlg= 0 I1Cent=           0 FoldK=F
 IRaf=         1 NMat=       1 IRICut=       1 DoRegI=T DoRafI=F ISym2E= 0 IDoP0=0 IntGTp=1.
 FoFCou: FMM=F IPFlag=           0 FMFlag=      100000 FMFlg1=           0
         NFxFlg=           0 DoJE=T BraDBF=F KetDBF=F FulRan=T
         wScrn=  0.000000 ICntrl=       500 IOpCl=  0 I1Cent=           0 NGrid=           0
         NMat0=    1 NMatS0=      1 NMatT0=    0 NMatD0=    1 NMtDS0=    0 NMtDT0=    0
 Symmetry not used in FoFCou.
 Defaulting to unpruned grid for atomic number  47.
 Defaulting to unpruned grid for atomic number  47.
 Defaulting to unpruned grid for atomic number  47.
 Defaulting to unpruned grid for atomic number  47.
 E= -2622.25982345543    
 DIIS: error= 1.65D-01 at cycle   1 NSaved=   1.
 NSaved= 1 IEnMin= 1 EnMin= -2622.25982345543     IErMin= 1 ErrMin= 1.65D-01
 ErrMax= 1.65D-01  0.00D+00 EMaxC= 1.00D-01 BMatC= 2.92D+01 BMatP= 2.92D+01
 IDIUse=3 WtCom= 0.00D+00 WtEn= 1.00D+00
 Coeff-Com:  0.100D+01
 Coeff-En:   0.100D+01
 Coeff:      0.100D+01
 Gap=     0.276 Goal=   None    Shift=    0.000
 GapD=    0.276 DampG=1.000 DampE=0.125 DampFc=0.1250 IDamp=-1.
 Damping current iteration by 1.25D-01
 RMSDP=5.25D-02 MaxDP=9.56D+00              OVMax= 7.75D-01

 Cycle   2  Pass 1  IDiag  1:
 RMSU=  6.55D-03    CP:  9.92D-01
 E= -2627.93970351066     Delta-E=       -5.679880055226 Rises=F Damp=T
 DIIS: error= 1.23D-01 at cycle   2 NSaved=   2.
 NSaved= 2 IEnMin= 2 EnMin= -2627.93970351066     IErMin= 2 ErrMin= 1.23D-01
 ErrMax= 1.23D-01  0.00D+00 EMaxC= 1.00D-01 BMatC= 1.60D+01 BMatP= 2.92D+01
 IDIUse=3 WtCom= 0.00D+00 WtEn= 1.00D+00
 Coeff-Com: -0.274D+01 0.374D+01
 Coeff-En:   0.000D+00 0.100D+01
 Coeff:      0.000D+00 0.100D+01
 Gap=     0.105 Goal=   None    Shift=    0.000
 RMSDP=3.73D-02 MaxDP=3.52D+00 DE=-5.68D+00 OVMax= 1.20D-01

 Cycle   3  Pass 1  IDiag  1:
 RMSU=  2.45D-02    CP:  8.37D-01  3.00D+00
 E= -2636.46974020297     Delta-E=       -8.530036692307 Rises=F Damp=F
 DIIS: error= 9.23D-02 at cycle   3 NSaved=   3.
 NSaved= 3 IEnMin= 3 EnMin= -2636.46974020297     IErMin= 3 ErrMin= 9.23D-02
 ErrMax= 9.23D-02  0.00D+00 EMaxC= 1.00D-01 BMatC= 1.09D+01 BMatP= 1.60D+01
 IDIUse=3 WtCom= 7.66D-02 WtEn= 9.23D-01
 EnCoef did   100 forward-backward iterations
 Coeff-Com: -0.252D+01 0.348D+01 0.476D-01
 Coeff-En:   0.294D+00 0.576D-02 0.700D+00
 Coeff:      0.782D-01 0.272D+00 0.650D+00
 Gap=     0.184 Goal=   None    Shift=    0.000
 RMSDP=4.50D-02 MaxDP=7.29D+00 DE=-8.53D+00 OVMax= 5.70D-01

 Cycle   4  Pass 1  IDiag  1:
 RMSU=  1.90D-02    CP:  4.22D-01  7.43D-01  1.67D-01
 E= -2643.33500955398     Delta-E=       -6.865269351016 Rises=F Damp=F
 DIIS: error= 1.38D-01 at cycle   4 NSaved=   4.
 NSaved= 4 IEnMin= 4 EnMin= -2643.33500955398     IErMin= 3 ErrMin= 9.23D-02
 ErrMax= 1.38D-01  0.00D+00 EMaxC= 1.00D-01 BMatC= 5.20D+00 BMatP= 1.09D+01
 IDIUse=3 WtCom= 0.00D+00 WtEn= 1.00D+00
 Coeff-Com: -0.202D+01 0.274D+01 0.443D-01 0.234D+00
 Coeff-En:   0.000D+00 0.000D+00 0.182D+00 0.818D+00
 Coeff:      0.000D+00 0.000D+00 0.182D+00 0.818D+00
 Gap=     0.924 Goal=   None    Shift=    0.000
 RMSDP=6.23D-02 MaxDP=2.24D+01 DE=-6.87D+00 OVMax= 5.66D-01

 Cycle   5  Pass 1  IDiag  1:
 RMSU=  5.40D-02    CP:  6.93D-01  3.00D+00  2.37D-01  4.24D-01
 E= -2638.23993173182     Delta-E=        5.095077822161 Rises=F Damp=F
 DIIS: error= 9.08D-02 at cycle   5 NSaved=   5.
 NSaved= 5 IEnMin= 4 EnMin= -2643.33500955398     IErMin= 5 ErrMin= 9.08D-02
 ErrMax= 9.08D-02  0.00D+00 EMaxC= 1.00D-01 BMatC= 9.52D+00 BMatP= 5.20D+00
 IDIUse=2 WtCom= 0.00D+00 WtEn= 1.00D+00
 Coeff-En:   0.000D+00 0.000D+00 0.000D+00 0.669D+00 0.331D+00
 Coeff:      0.000D+00 0.000D+00 0.000D+00 0.669D+00 0.331D+00
 Gap=     0.056 Goal=   None    Shift=    0.000
 RMSDP=6.41D-02 MaxDP=2.46D+01 DE= 5.10D+00 OVMax= 6.61D-01

 Cycle   6  Pass 1  IDiag  1:
 RMSU=  1.00D-02    CP:  4.08D-01  9.91D-01  2.01D-01  7.85D-01 -4.85D-02
 E= -2646.13906080745     Delta-E=       -7.899129075626 Rises=F Damp=F
 DIIS: error= 2.38D-02 at cycle   6 NSaved=   6.
 NSaved= 6 IEnMin= 6 EnMin= -2646.13906080745     IErMin= 6 ErrMin= 2.38D-02
 ErrMax= 2.38D-02  0.00D+00 EMaxC= 1.00D-01 BMatC= 6.76D-01 BMatP= 5.20D+00
 IDIUse=3 WtCom= 7.62D-01 WtEn= 2.38D-01
 Coeff-Com: -0.998D+00 0.136D+01-0.422D-01 0.170D+00-0.566D-01 0.570D+00
 Coeff-En:   0.000D+00 0.000D+00 0.000D+00 0.171D+00 0.000D+00 0.829D+00
 Coeff:     -0.761D+00 0.103D+01-0.322D-01 0.170D+00-0.431D-01 0.631D+00
 Gap=     0.147 Goal=   None    Shift=    0.000
 RMSDP=5.31D-03 MaxDP=7.34D-01 DE=-7.90D+00 OVMax= 1.50D-01

 Cycle   7  Pass 1  IDiag  1:
 RMSU=  4.08D-03    CP:  4.31D-01  8.99D-01  2.05D-01  8.26D-01 -3.92D-02
                    CP:  6.98D-01
 E= -2646.48358467171     Delta-E=       -0.344523864263 Rises=F Damp=F
 DIIS: error= 1.32D-02 at cycle   7 NSaved=   7.
 NSaved= 7 IEnMin= 7 EnMin= -2646.48358467171     IErMin= 7 ErrMin= 1.32D-02
 ErrMax= 1.32D-02  0.00D+00 EMaxC= 1.00D-01 BMatC= 2.14D-01 BMatP= 6.76D-01
 IDIUse=3 WtCom= 8.68D-01 WtEn= 1.32D-01
 Coeff-Com: -0.375D+00 0.527D+00-0.779D-01 0.576D-01-0.496D-01 0.358D+00
 Coeff-Com:  0.560D+00
 Coeff-En:   0.000D+00 0.000D+00 0.000D+00 0.000D+00 0.000D+00 0.000D+00
 Coeff-En:   0.100D+01
 Coeff:     -0.326D+00 0.457D+00-0.677D-01 0.500D-01-0.431D-01 0.311D+00
 Coeff:      0.618D+00
 Gap=     0.160 Goal=   None    Shift=    0.000
 RMSDP=3.87D-03 MaxDP=3.57D-01 DE=-3.45D-01 OVMax= 1.14D-01

 Cycle   8  Pass 1  IDiag  1:
 RMSU=  2.70D-03    CP:  3.91D-01  7.24D-01  1.79D-01  8.44D-01 -3.58D-02
                    CP:  7.26D-01  6.33D-01
 E= -2646.65714416924     Delta-E=       -0.173559497534 Rises=F Damp=F
 DIIS: error= 5.24D-03 at cycle   8 NSaved=   8.
 NSaved= 8 IEnMin= 8 EnMin= -2646.65714416924     IErMin= 8 ErrMin= 5.24D-03
 ErrMax= 5.24D-03  0.00D+00 EMaxC= 1.00D-01 BMatC= 3.79D-02 BMatP= 2.14D-01
 IDIUse=3 WtCom= 9.48D-01 WtEn= 5.24D-02
 Coeff-Com: -0.965D-01 0.145D+00-0.537D-01 0.120D-01-0.120D-01 0.866D-01
 Coeff-Com:  0.294D+00 0.624D+00
 Coeff-En:   0.000D+00 0.000D+00 0.000D+00 0.000D+00 0.000D+00 0.000D+00
 Coeff-En:   0.000D+00 0.100D+01
 Coeff:     -0.914D-01 0.137D+00-0.509D-01 0.114D-01-0.113D-01 0.821D-01
 Coeff:      0.279D+00 0.644D+00
 Gap=     0.160 Goal=   None    Shift=    0.000
 RMSDP=2.02D-03 MaxDP=2.16D-01 DE=-1.74D-01 OVMax= 7.10D-02

 Cycle   9  Pass 1  IDiag  1:
 RMSU=  1.53D-03    CP:  3.70D-01  6.71D-01  1.63D-01  8.55D-01 -3.08D-02
                    CP:  7.01D-01  6.67D-01  1.18D+00
 E= -2646.68661522410     Delta-E=       -0.029471054853 Rises=F Damp=F
 DIIS: error= 2.86D-03 at cycle   9 NSaved=   9.
 NSaved= 9 IEnMin= 9 EnMin= -2646.68661522410     IErMin= 9 ErrMin= 2.86D-03
 ErrMax= 2.86D-03  0.00D+00 EMaxC= 1.00D-01 BMatC= 7.87D-03 BMatP= 3.79D-02
 IDIUse=3 WtCom= 9.71D-01 WtEn= 2.86D-02
 Coeff-Com: -0.134D-01 0.227D-01-0.163D-01-0.606D-02 0.669D-02-0.488D-01
 Coeff-Com: -0.779D-02 0.394D+00 0.669D+00
 Coeff-En:   0.000D+00 0.000D+00 0.000D+00 0.000D+00 0.000D+00 0.000D+00
 Coeff-En:   0.000D+00 0.000D+00 0.100D+01
 Coeff:     -0.130D-01 0.220D-01-0.158D-01-0.588D-02 0.649D-02-0.474D-01
 Coeff:     -0.757D-02 0.382D+00 0.679D+00
 Gap=     0.154 Goal=   None    Shift=    0.000
 RMSDP=1.03D-03 MaxDP=8.54D-02 DE=-2.95D-02 OVMax= 3.13D-02

 Cycle  10  Pass 1  IDiag  1:
 RMSU=  5.37D-04    CP:  3.57D-01  6.53D-01  1.59D-01  8.57D-01 -2.99D-02
                    CP:  7.07D-01  6.27D-01  1.39D+00  1.02D+00
 E= -2646.69400132580     Delta-E=       -0.007386101699 Rises=F Damp=F
 DIIS: error= 8.42D-04 at cycle  10 NSaved=  10.
 NSaved=10 IEnMin=10 EnMin= -2646.69400132580     IErMin=10 ErrMin= 8.42D-04
 ErrMax= 8.42D-04  0.00D+00 EMaxC= 1.00D-01 BMatC= 6.98D-04 BMatP= 7.87D-03
 IDIUse=3 WtCom= 9.92D-01 WtEn= 8.42D-03
 Coeff-Com: -0.154D-01 0.210D-01-0.247D-02-0.319D-02 0.308D-02-0.165D-01
 Coeff-Com: -0.319D-01 0.445D-01 0.293D+00 0.708D+00
 Coeff-En:   0.000D+00 0.000D+00 0.000D+00 0.000D+00 0.000D+00 0.000D+00
 Coeff-En:   0.000D+00 0.000D+00 0.000D+00 0.100D+01
 Coeff:     -0.152D-01 0.208D-01-0.245D-02-0.316D-02 0.306D-02-0.163D-01
 Coeff:     -0.316D-01 0.441D-01 0.290D+00 0.711D+00
 Gap=     0.152 Goal=   None    Shift=    0.000
 RMSDP=2.41D-04 MaxDP=1.62D-02 DE=-7.39D-03 OVMax= 1.07D-02

 Cycle  11  Pass 1  IDiag  1:
 RMSU=  1.87D-04    CP:  3.56D-01  6.56D-01  1.60D-01  8.54D-01 -2.97D-02
                    CP:  7.14D-01  6.38D-01  1.36D+00  1.08D+00  9.97D-01
 E= -2646.69468848811     Delta-E=       -0.000687162315 Rises=F Damp=F
 DIIS: error= 3.20D-04 at cycle  11 NSaved=  11.
 NSaved=11 IEnMin=11 EnMin= -2646.69468848811     IErMin=11 ErrMin= 3.20D-04
 ErrMax= 3.20D-04  0.00D+00 EMaxC= 1.00D-01 BMatC= 1.46D-04 BMatP= 6.98D-04
 IDIUse=3 WtCom= 9.97D-01 WtEn= 3.20D-03
 Coeff-Com:  0.262D-03-0.660D-03-0.796D-03-0.503D-03 0.257D-03 0.350D-02
 Coeff-Com: -0.116D-01-0.402D-01 0.164D-01 0.270D+00 0.763D+00
 Coeff-En:   0.000D+00 0.000D+00 0.000D+00 0.000D+00 0.000D+00 0.000D+00
 Coeff-En:   0.000D+00 0.000D+00 0.000D+00 0.000D+00 0.100D+01
 Coeff:      0.261D-03-0.657D-03-0.794D-03-0.501D-03 0.256D-03 0.349D-02
 Coeff:     -0.116D-01-0.401D-01 0.163D-01 0.269D+00 0.764D+00
 Gap=     0.153 Goal=   None    Shift=    0.000
 RMSDP=1.87D-04 MaxDP=2.39D-02 DE=-6.87D-04 OVMax= 5.26D-03

 Cycle  12  Pass 1  IDiag  1:
 RMSU=  7.01D-05    CP:  3.54D-01  6.51D-01  1.59D-01  8.54D-01 -2.99D-02
                    CP:  7.16D-01  6.30D-01  1.37D+00  1.13D+00  1.17D+00
                    CP:  1.07D+00
 E= -2646.69485126487     Delta-E=       -0.000162776761 Rises=F Damp=F
 DIIS: error= 2.05D-04 at cycle  12 NSaved=  12.
 NSaved=12 IEnMin=12 EnMin= -2646.69485126487     IErMin=12 ErrMin= 2.05D-04
 ErrMax= 2.05D-04  0.00D+00 EMaxC= 1.00D-01 BMatC= 2.36D-05 BMatP= 1.46D-04
 IDIUse=3 WtCom= 9.98D-01 WtEn= 2.05D-03
 Coeff-Com:  0.253D-02-0.369D-02-0.185D-03 0.118D-03-0.253D-03 0.342D-02
 Coeff-Com: -0.366D-02-0.261D-01-0.264D-01 0.558D-01 0.459D+00 0.540D+00
 Coeff-En:   0.000D+00 0.000D+00 0.000D+00 0.000D+00 0.000D+00 0.000D+00
 Coeff-En:   0.000D+00 0.000D+00 0.000D+00 0.000D+00 0.000D+00 0.100D+01
 Coeff:      0.253D-02-0.368D-02-0.185D-03 0.118D-03-0.252D-03 0.341D-02
 Coeff:     -0.366D-02-0.261D-01-0.263D-01 0.557D-01 0.458D+00 0.541D+00
 Gap=     0.153 Goal=   None    Shift=    0.000
 RMSDP=5.61D-05 MaxDP=6.95D-03 DE=-1.63D-04 OVMax= 2.86D-03

 Cycle  13  Pass 1  IDiag  1:
 RMSU=  3.14D-05    CP:  3.54D-01  6.50D-01  1.59D-01  8.54D-01 -2.99D-02
                    CP:  7.16D-01  6.28D-01  1.38D+00  1.14D+00  1.21D+00
                    CP:  1.23D+00  8.73D-01
 E= -2646.69488355858     Delta-E=       -0.000032293705 Rises=F Damp=F
 DIIS: error= 8.45D-05 at cycle  13 NSaved=  13.
 NSaved=13 IEnMin=13 EnMin= -2646.69488355858     IErMin=13 ErrMin= 8.45D-05
 ErrMax= 8.45D-05  0.00D+00 EMaxC= 1.00D-01 BMatC= 4.99D-06 BMatP= 2.36D-05
 IDIUse=1 WtCom= 1.00D+00 WtEn= 0.00D+00
 Coeff-Com:  0.475D-04-0.210D-03 0.240D-03 0.100D-03-0.120D-03-0.324D-03
 Coeff-Com: -0.441D-03-0.974D-04-0.742D-02-0.215D-01 0.690D-01 0.232D+00
 Coeff-Com:  0.729D+00
 Coeff:      0.475D-04-0.210D-03 0.240D-03 0.100D-03-0.120D-03-0.324D-03
 Coeff:     -0.441D-03-0.974D-04-0.742D-02-0.215D-01 0.690D-01 0.232D+00
 Coeff:      0.729D+00
 Gap=     0.153 Goal=   None    Shift=    0.000
 RMSDP=3.41D-05 MaxDP=2.87D-03 DE=-3.23D-05 OVMax= 1.82D-03

 Cycle  14  Pass 1  IDiag  1:
 RMSU=  1.55D-05    CP:  3.54D-01  6.50D-01  1.59D-01  8.54D-01 -2.99D-02
                    CP:  7.16D-01  6.28D-01  1.37D+00  1.13D+00  1.22D+00
                    CP:  1.31D+00  1.08D+00  1.13D+00
 E= -2646.69489477001     Delta-E=       -0.000011211429 Rises=F Damp=F
 DIIS: error= 5.15D-05 at cycle  14 NSaved=  14.
 NSaved=14 IEnMin=14 EnMin= -2646.69489477001     IErMin=14 ErrMin= 5.15D-05
 ErrMax= 5.15D-05  0.00D+00 EMaxC= 1.00D-01 BMatC= 6.95D-07 BMatP= 4.99D-06
 IDIUse=1 WtCom= 1.00D+00 WtEn= 0.00D+00
 Coeff-Com: -0.426D-03 0.557D-03 0.120D-03 0.145D-04 0.142D-04-0.680D-03
 Coeff-Com:  0.114D-02 0.527D-02 0.303D-03-0.254D-01-0.727D-01-0.424D-01
 Coeff-Com:  0.265D+00 0.870D+00
 Coeff:     -0.426D-03 0.557D-03 0.120D-03 0.145D-04 0.142D-04-0.680D-03
 Coeff:      0.114D-02 0.527D-02 0.303D-03-0.254D-01-0.727D-01-0.424D-01
 Coeff:      0.265D+00 0.870D+00
 Gap=     0.153 Goal=   None    Shift=    0.000
 RMSDP=2.37D-05 MaxDP=2.23D-03 DE=-1.12D-05 OVMax= 1.90D-03

 Cycle  15  Pass 1  IDiag  1:
 RMSU=  7.39D-06    CP:  3.54D-01  6.51D-01  1.59D-01  8.54D-01 -2.99D-02
                    CP:  7.16D-01  6.28D-01  1.37D+00  1.13D+00  1.23D+00
                    CP:  1.37D+00  1.19D+00  1.48D+00  1.41D+00
 E= -2646.69489997501     Delta-E=       -0.000005205005 Rises=F Damp=F
 DIIS: error= 3.64D-05 at cycle  15 NSaved=  15.
 NSaved=15 IEnMin=15 EnMin= -2646.69489997501     IErMin=15 ErrMin= 3.64D-05
 ErrMax= 3.64D-05  0.00D+00 EMaxC= 1.00D-01 BMatC= 2.63D-07 BMatP= 6.95D-07
 IDIUse=1 WtCom= 1.00D+00 WtEn= 0.00D+00
 Coeff-Com: -0.641D-04 0.122D-03-0.617D-04-0.727D-05 0.154D-04 0.230D-03
 Coeff-Com:  0.101D-02 0.818D-03-0.766D-03-0.736D-02-0.426D-01-0.690D-01
 Coeff-Com: -0.725D-01 0.296D+00 0.894D+00
 Coeff:     -0.641D-04 0.122D-03-0.617D-04-0.727D-05 0.154D-04 0.230D-03
 Coeff:      0.101D-02 0.818D-03-0.766D-03-0.736D-02-0.426D-01-0.690D-01
 Coeff:     -0.725D-01 0.296D+00 0.894D+00
 Gap=     0.153 Goal=   None    Shift=    0.000
 RMSDP=1.51D-05 MaxDP=1.25D-03 DE=-5.21D-06 OVMax= 1.50D-03

 Cycle  16  Pass 1  IDiag  1:
 RMSU=  4.55D-06    CP:  3.54D-01  6.50D-01  1.59D-01  8.54D-01 -2.99D-02
                    CP:  7.16D-01  6.28D-01  1.37D+00  1.13D+00  1.24D+00
                    CP:  1.41D+00  1.27D+00  1.67D+00  1.78D+00  1.61D+00
 E= -2646.69490235743     Delta-E=       -0.000002382420 Rises=F Damp=F
 DIIS: error= 2.27D-05 at cycle  16 NSaved=  16.
 NSaved=16 IEnMin=16 EnMin= -2646.69490235743     IErMin=16 ErrMin= 2.27D-05
 ErrMax= 2.27D-05  0.00D+00 EMaxC= 1.00D-01 BMatC= 6.03D-08 BMatP= 2.63D-07
 IDIUse=1 WtCom= 1.00D+00 WtEn= 0.00D+00
 Coeff-Com: -0.109D-03 0.168D-03-0.261D-04-0.363D-06-0.268D-05 0.963D-04
 Coeff-Com: -0.155D-03-0.550D-03 0.130D-02 0.537D-02-0.222D-02-0.147D-01
 Coeff-Com: -0.575D-01-0.187D+00 0.829D-01 0.117D+01
 Coeff:     -0.109D-03 0.168D-03-0.261D-04-0.363D-06-0.268D-05 0.963D-04
 Coeff:     -0.155D-03-0.550D-03 0.130D-02 0.537D-02-0.222D-02-0.147D-01
 Coeff:     -0.575D-01-0.187D+00 0.829D-01 0.117D+01
 Gap=     0.153 Goal=   None    Shift=    0.000
 RMSDP=1.11D-05 MaxDP=6.95D-04 DE=-2.38D-06 OVMax= 1.28D-03

 Cycle  17  Pass 1  IDiag  1:
 RMSU=  2.02D-06    CP:  3.54D-01  6.50D-01  1.59D-01  8.54D-01 -2.99D-02
                    CP:  7.16D-01  6.28D-01  1.37D+00  1.13D+00  1.24D+00
                    CP:  1.43D+00  1.31D+00  1.83D+00  2.06D+00  2.34D+00
                    CP:  1.75D+00
 E= -2646.69490336302     Delta-E=       -0.000001005588 Rises=F Damp=F
 DIIS: error= 1.09D-05 at cycle  17 NSaved=  17.
 NSaved=17 IEnMin=17 EnMin= -2646.69490336302     IErMin=17 ErrMin= 1.09D-05
 ErrMax= 1.09D-05  0.00D+00 EMaxC= 1.00D-01 BMatC= 3.12D-08 BMatP= 6.03D-08
 IDIUse=1 WtCom= 1.00D+00 WtEn= 0.00D+00
 Coeff-Com:  0.690D-04-0.947D-04 0.135D-04 0.222D-05 0.434D-05-0.193D-03
 Coeff-Com: -0.527D-03-0.384D-04 0.138D-02 0.449D-02 0.961D-02 0.150D-01
 Coeff-Com:  0.232D-01-0.138D+00-0.297D+00 0.317D+00 0.107D+01
 Coeff:      0.690D-04-0.947D-04 0.135D-04 0.222D-05 0.434D-05-0.193D-03
 Coeff:     -0.527D-03-0.384D-04 0.138D-02 0.449D-02 0.961D-02 0.150D-01
 Coeff:      0.232D-01-0.138D+00-0.297D+00 0.317D+00 0.107D+01
 Gap=     0.153 Goal=   None    Shift=    0.000
 RMSDP=6.52D-06 MaxDP=3.58D-04 DE=-1.01D-06 OVMax= 7.39D-04

 Cycle  18  Pass 1  IDiag  1:
 RMSU=  1.08D-06    CP:  3.54D-01  6.50D-01  1.59D-01  8.54D-01 -2.99D-02
                    CP:  7.16D-01  6.28D-01  1.37D+00  1.13D+00  1.24D+00
                    CP:  1.44D+00  1.33D+00  1.90D+00  2.20D+00  2.73D+00
                    CP:  2.36D+00  1.72D+00
 E= -2646.69490362063     Delta-E=       -0.000000257611 Rises=F Damp=F
 DIIS: error= 3.66D-06 at cycle  18 NSaved=  18.
 NSaved=18 IEnMin=18 EnMin= -2646.69490362063     IErMin=18 ErrMin= 3.66D-06
 ErrMax= 3.66D-06  0.00D+00 EMaxC= 1.00D-01 BMatC= 3.69D-09 BMatP= 3.12D-08
 IDIUse=1 WtCom= 1.00D+00 WtEn= 0.00D+00
 Coeff-Com:  0.338D-04-0.489D-04 0.512D-05-0.170D-06 0.631D-06-0.179D-04
 Coeff-Com:  0.232D-04 0.731D-05-0.224D-03-0.123D-03 0.313D-02 0.447D-02
 Coeff-Com:  0.775D-02 0.219D-02-0.284D-01-0.161D+00 0.123D+00 0.105D+01
 Coeff:      0.338D-04-0.489D-04 0.512D-05-0.170D-06 0.631D-06-0.179D-04
 Coeff:      0.232D-04 0.731D-05-0.224D-03-0.123D-03 0.313D-02 0.447D-02
 Coeff:      0.775D-02 0.219D-02-0.284D-01-0.161D+00 0.123D+00 0.105D+01
 Gap=     0.153 Goal=   None    Shift=    0.000
 RMSDP=2.04D-06 MaxDP=1.14D-04 DE=-2.58D-07 OVMax= 2.50D-04

 Cycle  19  Pass 1  IDiag  1:
 RMSU=  5.73D-07    CP:  3.54D-01  6.50D-01  1.59D-01  8.54D-01 -2.99D-02
                    CP:  7.16D-01  6.28D-01  1.37D+00  1.13D+00  1.24D+00
                    CP:  1.45D+00  1.33D+00  1.92D+00  2.24D+00  2.85D+00
                    CP:  2.56D+00  2.12D+00  1.52D+00
 E= -2646.69490365396     Delta-E=       -0.000000033324 Rises=F Damp=F
 DIIS: error= 1.91D-06 at cycle  19 NSaved=  19.
 NSaved=19 IEnMin=19 EnMin= -2646.69490365396     IErMin=19 ErrMin= 1.91D-06
 ErrMax= 1.91D-06  0.00D+00 EMaxC= 1.00D-01 BMatC= 1.45D-09 BMatP= 3.69D-09
 IDIUse=1 WtCom= 1.00D+00 WtEn= 0.00D+00
 Coeff-Com:  0.339D-06-0.176D-05-0.115D-05-0.136D-05-0.127D-06 0.377D-04
 Coeff-Com:  0.130D-03 0.256D-04-0.399D-03-0.101D-02-0.103D-03-0.921D-03
 Coeff-Com: -0.235D-02 0.254D-01 0.501D-01-0.127D+00-0.156D+00 0.445D+00
 Coeff-Com:  0.766D+00
 Coeff:      0.339D-06-0.176D-05-0.115D-05-0.136D-05-0.127D-06 0.377D-04
 Coeff:      0.130D-03 0.256D-04-0.399D-03-0.101D-02-0.103D-03-0.921D-03
 Coeff:     -0.235D-02 0.254D-01 0.501D-01-0.127D+00-0.156D+00 0.445D+00
 Coeff:      0.766D+00
 Gap=     0.153 Goal=   None    Shift=    0.000
 RMSDP=7.74D-07 MaxDP=5.50D-05 DE=-3.33D-08 OVMax= 8.31D-05

 Cycle  20  Pass 1  IDiag  1:
 RMSU=  2.50D-07    CP:  3.54D-01  6.50D-01  1.59D-01  8.54D-01 -2.99D-02
                    CP:  7.16D-01  6.28D-01  1.37D+00  1.13D+00  1.24D+00
                    CP:  1.45D+00  1.33D+00  1.92D+00  2.25D+00  2.89D+00
                    CP:  2.61D+00  2.26D+00  1.84D+00  1.45D+00
 E= -2646.69490366079     Delta-E=       -0.000000006834 Rises=F Damp=F
 DIIS: error= 1.20D-06 at cycle  20 NSaved=  20.
 NSaved=20 IEnMin=20 EnMin= -2646.69490366079     IErMin=20 ErrMin= 1.20D-06
 ErrMax= 1.20D-06  0.00D+00 EMaxC= 1.00D-01 BMatC= 2.18D-10 BMatP= 1.45D-09
 IDIUse=1 WtCom= 1.00D+00 WtEn= 0.00D+00
 Coeff-Com: -0.616D-05 0.852D-05-0.191D-05-0.340D-06-0.515D-06 0.200D-04
 Coeff-Com:  0.313D-04 0.664D-05-0.782D-04-0.393D-03-0.735D-03-0.122D-02
 Coeff-Com: -0.194D-02 0.528D-02 0.193D-01 0.112D-01-0.833D-01-0.175D+00
 Coeff-Com:  0.196D+00 0.103D+01
 Coeff:     -0.616D-05 0.852D-05-0.191D-05-0.340D-06-0.515D-06 0.200D-04
 Coeff:      0.313D-04 0.664D-05-0.782D-04-0.393D-03-0.735D-03-0.122D-02
 Coeff:     -0.194D-02 0.528D-02 0.193D-01 0.112D-01-0.833D-01-0.175D+00
 Coeff:      0.196D+00 0.103D+01
 Gap=     0.153 Goal=   None    Shift=    0.000
 RMSDP=5.98D-07 MaxDP=4.79D-05 DE=-6.83D-09 OVMax= 6.45D-05

 Cycle  21  Pass 1  IDiag  1:
 Restarting incremental Fock formation.
 E= -2646.69490366520     Delta-E=       -0.000000004407 Rises=F Damp=F
 DIIS: error= 6.02D-07 at cycle  21 NSaved=  20.
 NSaved=20 IEnMin=20 EnMin= -2646.69490366520     IErMin=20 ErrMin= 6.02D-07
 ErrMax= 6.02D-07  0.00D+00 EMaxC= 1.00D-01 BMatC= 6.62D-11 BMatP= 2.18D-10
 IDIUse=1 WtCom= 1.00D+00 WtEn= 0.00D+00
 Coeff-Com:  0.394D-06 0.791D-07 0.383D-07 0.376D-06-0.125D-04-0.328D-04
 Coeff-Com:  0.343D-05 0.114D-03 0.156D-03-0.186D-03 0.845D-04 0.128D-02
 Coeff-Com: -0.640D-02-0.104D-01 0.370D-01 0.262D-01-0.144D+00-0.178D+00
 Coeff-Com:  0.201D+00 0.107D+01
 Coeff:      0.394D-06 0.791D-07 0.383D-07 0.376D-06-0.125D-04-0.328D-04
 Coeff:      0.343D-05 0.114D-03 0.156D-03-0.186D-03 0.845D-04 0.128D-02
 Coeff:     -0.640D-02-0.104D-01 0.370D-01 0.262D-01-0.144D+00-0.178D+00
 Coeff:      0.201D+00 0.107D+01
 Gap=     0.153 Goal=   None    Shift=    0.000
 RMSDP=3.10D-07 MaxDP=2.80D-05 DE=-4.41D-09 OVMax= 3.49D-05

 Cycle  22  Pass 1  IDiag  1:
 RMSU=  3.10D-07    CP:  1.00D+00
 E= -2646.69490366586     Delta-E=       -0.000000000660 Rises=F Damp=F
 DIIS: error= 3.06D-07 at cycle  22 NSaved=  20.
 NSaved=20 IEnMin=20 EnMin= -2646.69490366586     IErMin=20 ErrMin= 3.06D-07
 ErrMax= 3.06D-07  0.00D+00 EMaxC= 1.00D-01 BMatC= 1.35D-11 BMatP= 6.62D-11
 IDIUse=1 WtCom= 1.00D+00 WtEn= 0.00D+00
 Coeff-Com:  0.560D-06 0.166D-07 0.254D-06-0.618D-05-0.104D-04-0.102D-04
 Coeff-Com:  0.233D-04 0.127D-03 0.225D-03 0.354D-03 0.436D-03-0.287D-02
 Coeff-Com: -0.480D-02 0.274D-02 0.207D-01 0.279D-01-0.767D-01-0.246D+00
 Coeff-Com:  0.175D+00 0.110D+01
 Coeff:      0.560D-06 0.166D-07 0.254D-06-0.618D-05-0.104D-04-0.102D-04
 Coeff:      0.233D-04 0.127D-03 0.225D-03 0.354D-03 0.436D-03-0.287D-02
 Coeff:     -0.480D-02 0.274D-02 0.207D-01 0.279D-01-0.767D-01-0.246D+00
 Coeff:      0.175D+00 0.110D+01
 Gap=     0.153 Goal=   None    Shift=    0.000
 RMSDP=1.71D-07 MaxDP=1.53D-05 DE=-6.60D-10 OVMax= 2.07D-05

 Cycle  23  Pass 1  IDiag  1:
 RMSU=  5.57D-08    CP:  1.00D+00  1.52D+00
 E= -2646.69490366608     Delta-E=       -0.000000000227 Rises=F Damp=F
 DIIS: error= 1.35D-07 at cycle  23 NSaved=  20.
 NSaved=20 IEnMin=20 EnMin= -2646.69490366608     IErMin=20 ErrMin= 1.35D-07
 ErrMax= 1.35D-07  0.00D+00 EMaxC= 1.00D-01 BMatC= 5.68D-12 BMatP= 1.35D-11
 IDIUse=1 WtCom= 1.00D+00 WtEn= 0.00D+00
 Coeff-Com: -0.488D-08 0.412D-07 0.722D-07 0.186D-05-0.425D-05-0.105D-04
 Coeff-Com:  0.286D-04 0.173D-03 0.163D-03-0.119D-03-0.339D-03-0.316D-03
 Coeff-Com: -0.488D-02 0.490D-02 0.392D-01-0.697D-02-0.160D+00-0.121D+00
 Coeff-Com:  0.580D+00 0.669D+00
 Coeff:     -0.488D-08 0.412D-07 0.722D-07 0.186D-05-0.425D-05-0.105D-04
 Coeff:      0.286D-04 0.173D-03 0.163D-03-0.119D-03-0.339D-03-0.316D-03
 Coeff:     -0.488D-02 0.490D-02 0.392D-01-0.697D-02-0.160D+00-0.121D+00
 Coeff:      0.580D+00 0.669D+00
 Gap=     0.153 Goal=   None    Shift=    0.000
 RMSDP=5.86D-08 MaxDP=4.61D-06 DE=-2.27D-10 OVMax= 7.19D-06

 Cycle  24  Pass 1  IDiag  1:
 RMSU=  2.78D-08    CP:  1.00D+00  1.67D+00  1.35D+00
 E= -2646.69490366615     Delta-E=       -0.000000000064 Rises=F Damp=F
 DIIS: error= 7.79D-08 at cycle  24 NSaved=  20.
 NSaved=20 IEnMin=20 EnMin= -2646.69490366615     IErMin=20 ErrMin= 7.79D-08
 ErrMax= 7.79D-08  0.00D+00 EMaxC= 1.00D-01 BMatC= 1.83D-12 BMatP= 5.68D-12
 IDIUse=1 WtCom= 1.00D+00 WtEn= 0.00D+00
 Coeff-Com:  0.103D-07 0.108D-05 0.277D-05 0.206D-05-0.948D-05-0.226D-04
 Coeff-Com:  0.391D-04 0.184D-04-0.781D-04 0.555D-03 0.498D-03-0.334D-02
 Coeff-Com: -0.142D-02 0.154D-01 0.145D-01-0.288D-01-0.123D+00 0.570D-01
 Coeff-Com:  0.399D+00 0.670D+00
 Coeff:      0.103D-07 0.108D-05 0.277D-05 0.206D-05-0.948D-05-0.226D-04
 Coeff:      0.391D-04 0.184D-04-0.781D-04 0.555D-03 0.498D-03-0.334D-02
 Coeff:     -0.142D-02 0.154D-01 0.145D-01-0.288D-01-0.123D+00 0.570D-01
 Coeff:      0.399D+00 0.670D+00
 Gap=     0.153 Goal=   None    Shift=    0.000
 RMSDP=3.12D-08 MaxDP=2.33D-06 DE=-6.37D-11 OVMax= 3.71D-06

 Cycle  25  Pass 1  IDiag  1:
 RMSU=  1.43D-08    CP:  1.00D+00  1.73D+00  1.70D+00  1.29D+00
 E= -2646.69490366613     Delta-E=        0.000000000015 Rises=F Damp=F
 DIIS: error= 4.87D-08 at cycle  25 NSaved=  20.
 NSaved=20 IEnMin=19 EnMin= -2646.69490366615     IErMin=20 ErrMin= 4.87D-08
 ErrMax= 4.87D-08  0.00D+00 EMaxC= 1.00D-01 BMatC= 3.42D-13 BMatP= 1.83D-12
 IDIUse=1 WtCom= 1.00D+00 WtEn= 0.00D+00
 Coeff-Com:  0.442D-06 0.452D-06 0.180D-05-0.768D-07-0.190D-04-0.375D-04
 Coeff-Com: -0.444D-04-0.143D-04 0.340D-03 0.320D-03 0.189D-03-0.207D-02
 Coeff-Com: -0.614D-02 0.895D-02 0.397D-01-0.179D-01-0.145D+00-0.627D-01
 Coeff-Com:  0.227D+00 0.958D+00
 Coeff:      0.442D-06 0.452D-06 0.180D-05-0.768D-07-0.190D-04-0.375D-04
 Coeff:     -0.444D-04-0.143D-04 0.340D-03 0.320D-03 0.189D-03-0.207D-02
 Coeff:     -0.614D-02 0.895D-02 0.397D-01-0.179D-01-0.145D+00-0.627D-01
 Coeff:      0.227D+00 0.958D+00
 Gap=     0.153 Goal=   None    Shift=    0.000
 RMSDP=2.16D-08 MaxDP=1.45D-06 DE= 1.46D-11 OVMax= 2.60D-06

 Cycle  26  Pass 1  IDiag  1:
 RMSU=  6.72D-09    CP:  1.00D+00  1.75D+00  1.94D+00  1.72D+00  1.46D+00
 E= -2646.69490366607     Delta-E=        0.000000000060 Rises=F Damp=F
 DIIS: error= 2.85D-08 at cycle  26 NSaved=  20.
 NSaved=20 IEnMin=18 EnMin= -2646.69490366615     IErMin=20 ErrMin= 2.85D-08
 ErrMax= 2.85D-08  0.00D+00 EMaxC= 1.00D-01 BMatC= 1.14D-13 BMatP= 3.42D-13
 IDIUse=1 WtCom= 1.00D+00 WtEn= 0.00D+00
 Coeff-Com: -0.253D-06-0.430D-06 0.163D-05-0.154D-05-0.287D-04-0.295D-04
 Coeff-Com: -0.635D-05 0.485D-04 0.184D-03 0.697D-03-0.851D-03-0.639D-02
 Coeff-Com:  0.106D-02 0.236D-01 0.219D-01-0.633D-01-0.147D+00-0.139D+00
 Coeff-Com:  0.369D+00 0.940D+00
 Coeff:     -0.253D-06-0.430D-06 0.163D-05-0.154D-05-0.287D-04-0.295D-04
 Coeff:     -0.635D-05 0.485D-04 0.184D-03 0.697D-03-0.851D-03-0.639D-02
 Coeff:      0.106D-02 0.236D-01 0.219D-01-0.633D-01-0.147D+00-0.139D+00
 Coeff:      0.369D+00 0.940D+00
 Gap=     0.153 Goal=   None    Shift=    0.000
 RMSDP=1.29D-08 MaxDP=7.83D-07 DE= 6.00D-11 OVMax= 1.75D-06

 Cycle  27  Pass 1  IDiag  1:
 RMSU=  4.38D-09    CP:  1.00D+00  1.77D+00  2.08D+00  1.90D+00  1.76D+00
                    CP:  1.86D+00
 E= -2646.69490366624     Delta-E=       -0.000000000167 Rises=F Damp=F
 DIIS: error= 1.55D-08 at cycle  27 NSaved=  20.
 NSaved=20 IEnMin=20 EnMin= -2646.69490366624     IErMin=20 ErrMin= 1.55D-08
 ErrMax= 1.55D-08  0.00D+00 EMaxC= 1.00D-01 BMatC= 2.76D-14 BMatP= 1.14D-13
 IDIUse=1 WtCom= 1.00D+00 WtEn= 0.00D+00
 Coeff-Com: -0.586D-06-0.241D-06 0.430D-05 0.148D-05-0.393D-05-0.189D-04
 Coeff-Com: -0.938D-05 0.754D-04-0.102D-03 0.455D-06 0.506D-03-0.572D-03
 Coeff-Com: -0.446D-02 0.140D-02 0.301D-01-0.995D-02-0.901D-01-0.176D+00
 Coeff-Com:  0.194D+00 0.105D+01
 Coeff:     -0.586D-06-0.241D-06 0.430D-05 0.148D-05-0.393D-05-0.189D-04
 Coeff:     -0.938D-05 0.754D-04-0.102D-03 0.455D-06 0.506D-03-0.572D-03
 Coeff:     -0.446D-02 0.140D-02 0.301D-01-0.995D-02-0.901D-01-0.176D+00
 Coeff:      0.194D+00 0.105D+01
 Gap=     0.153 Goal=   None    Shift=    0.000
 RMSDP=6.77D-09 MaxDP=5.35D-07 DE=-1.67D-10 OVMax= 9.73D-07

 SCF Done:  E(RwB97XD) =  -2646.69490367     A.U. after   27 cycles
            NFock= 27  Conv=0.68D-08     -V/T= 3.6231
 KE= 1.008984713786D+03 PE=-2.025437703362D+04 EE= 9.324558798990D+03
 Leave Link  502 at Wed Mar  5 06:23:29 2025, MaxMem=  2097152000 cpu:            6158.1 elap:            1548.1
 (Enter /nvme/h/buildsets/eb_nepheli/software/Gaussian/16.C.01-AVX2/g16/l508.exe)
 QCSCF skips out because SCF is already converged.
 Leave Link  508 at Wed Mar  5 06:23:29 2025, MaxMem=  2097152000 cpu:               0.0 elap:               0.0
 (Enter /nvme/h/buildsets/eb_nepheli/software/Gaussian/16.C.01-AVX2/g16/l601.exe)
 Copying SCF densities to generalized density rwf, IOpCl= 0 IROHF=0.

 **********************************************************************

            Population analysis using the SCF Density.

 **********************************************************************

 Orbital symmetries:
       Occupied  (A) (A) (A) (A) (A) (A) (A) (A) (A) (A) (A) (A)
                 (A) (A) (A) (A) (A) (A) (A) (A) (A) (A) (A) (A)
                 (A) (A) (A) (A) (A) (A) (A) (A) (A) (A) (A) (A)
                 (A) (A) (A) (A) (A) (A) (A) (A) (A) (A) (A) (A)
                 (A) (A) (A) (A) (A) (A) (A) (A) (A) (A) (A) (A)
                 (A) (A) (A) (A) (A) (A) (A) (A) (A) (A) (A) (A)
                 (A) (A) (A) (A) (A) (A) (A) (A) (A) (A) (A) (A)
                 (A) (A) (A) (A) (A) (A) (A) (A) (A) (A) (A) (A)
                 (A) (A) (A) (A) (A) (A) (A) (A) (A) (A) (A) (A)
                 (A) (A) (A) (A) (A) (A) (A) (A) (A) (A) (A) (A)
                 (A) (A) (A) (A) (A) (A) (A) (A) (A) (A) (A) (A)
                 (A) (A) (A) (A) (A) (A) (A) (A) (A) (A) (A) (A)
                 (A) (A) (A) (A) (A) (A) (A) (A) (A) (A) (A) (A)
                 (A) (A) (A) (A) (A) (A) (A) (A) (A) (A) (A) (A)
                 (A) (A) (A)
       Virtual   (A) (A) (A) (A) (A) (A) (A) (A) (A) (A) (A) (A)
                 (A) (A) (A) (A) (A) (A) (A) (A) (A) (A) (A) (A)
                 (A) (A) (A) (A) (A) (A) (A) (A) (A) (A) (A) (A)
                 (A) (A) (A) (A) (A) (A) (A) (A) (A) (A) (A) (A)
                 (A) (A) (A) (A) (A) (A) (A) (A) (A) (A) (A) (A)
                 (A) (A) (A) (A) (A) (A) (A) (A) (A) (A) (A) (A)
                 (A) (A) (A) (A) (A) (A) (A) (A) (A) (A) (A) (A)
                 (A) (A) (A) (A) (A) (A) (A) (A) (A) (A) (A) (A)
                 (A) (A) (A) (A) (A) (A) (A) (A) (A) (A) (A) (A)
                 (A) (A) (A) (A) (A) (A) (A) (A) (A) (A) (A) (A)
                 (A) (A) (A) (A) (A) (A) (A) (A) (A) (A) (A) (A)
                 (A) (A) (A) (A) (A) (A) (A) (A) (A) (A) (A) (A)
                 (A) (A) (A) (A) (A) (A) (A) (A) (A) (A) (A) (A)
                 (A) (A) (A) (A) (A) (A) (A) (A) (A) (A) (A) (A)
                 (A) (A) (A) (A) (A) (A) (A) (A) (A) (A) (A) (A)
                 (A) (A) (A) (A) (A) (A) (A) (A) (A) (A) (A) (A)
                 (A) (A) (A) (A) (A) (A) (A) (A) (A) (A) (A) (A)
                 (A) (A) (A) (A) (A) (A) (A) (A) (A) (A) (A) (A)
                 (A) (A) (A) (A) (A) (A) (A) (A) (A) (A) (A) (A)
                 (A) (A) (A) (A) (A) (A) (A) (A) (A) (A) (A) (A)
                 (A) (A) (A) (A) (A) (A) (A) (A) (A) (A) (A) (A)
                 (A) (A) (A) (A) (A) (A) (A) (A) (A) (A) (A) (A)
                 (A) (A) (A) (A) (A) (A) (A) (A) (A) (A) (A) (A)
                 (A) (A) (A) (A) (A) (A) (A) (A) (A) (A) (A) (A)
                 (A) (A) (A) (A) (A) (A) (A) (A) (A) (A) (A) (A)
                 (A) (A) (A) (A) (A) (A) (A) (A) (A) (A) (A) (A)
                 (A) (A) (A) (A) (A) (A) (A) (A) (A) (A) (A) (A)
                 (A) (A) (A) (A) (A) (A) (A) (A) (A) (A) (A) (A)
                 (A) (A) (A) (A) (A) (A) (A) (A) (A) (A) (A) (A)
                 (A) (A) (A) (A) (A) (A) (A) (A) (A) (A) (A) (A)
                 (A) (A) (A) (A) (A) (A) (A) (A) (A) (A) (A) (A)
                 (A) (A) (A) (A) (A) (A) (A) (A) (A) (A) (A) (A)
                 (A) (A) (A)
 The electronic state is 1-A.
 Alpha  occ. eigenvalues --   -3.86659  -3.85594  -3.85493  -3.85020  -3.85020
 Alpha  occ. eigenvalues --   -3.84869  -3.84695  -3.84695  -3.84674  -3.84659
 Alpha  occ. eigenvalues --   -3.84570  -3.84566  -3.84461  -3.84461  -3.84163
 Alpha  occ. eigenvalues --   -3.84140  -3.84136  -3.84061  -2.44879  -2.44875
 Alpha  occ. eigenvalues --   -2.44738  -2.43876  -2.43783  -2.43731  -2.43670
 Alpha  occ. eigenvalues --   -2.43604  -2.43563  -2.43246  -2.43237  -2.43172
 Alpha  occ. eigenvalues --   -2.43171  -2.43110  -2.43098  -2.43072  -2.42994
 Alpha  occ. eigenvalues --   -2.42966  -2.42940  -2.42923  -2.42913  -2.42863
 Alpha  occ. eigenvalues --   -2.42832  -2.42829  -2.42823  -2.42803  -2.42792
 Alpha  occ. eigenvalues --   -2.42778  -2.42746  -2.42740  -2.42684  -2.42677
 Alpha  occ. eigenvalues --   -2.42664  -2.42633  -2.42632  -2.42609  -2.42596
 Alpha  occ. eigenvalues --   -2.42596  -2.42581  -2.42570  -2.42523  -2.42513
 Alpha  occ. eigenvalues --   -2.42420  -2.42410  -2.42327  -2.42301  -2.42270
 Alpha  occ. eigenvalues --   -2.42250  -2.42220  -2.42185  -2.42156  -2.42156
 Alpha  occ. eigenvalues --   -2.42122  -2.42089  -0.49022  -0.48796  -0.48616
 Alpha  occ. eigenvalues --   -0.47989  -0.47958  -0.47650  -0.46707  -0.46477
 Alpha  occ. eigenvalues --   -0.46241  -0.46197  -0.46101  -0.45899  -0.45869
 Alpha  occ. eigenvalues --   -0.45682  -0.45597  -0.45494  -0.45458  -0.45414
 Alpha  occ. eigenvalues --   -0.45215  -0.45127  -0.45077  -0.44985  -0.44893
 Alpha  occ. eigenvalues --   -0.44759  -0.44739  -0.44605  -0.44597  -0.44252
 Alpha  occ. eigenvalues --   -0.44179  -0.44016  -0.43820  -0.43803  -0.43678
 Alpha  occ. eigenvalues --   -0.43605  -0.43379  -0.43324  -0.43154  -0.43080
 Alpha  occ. eigenvalues --   -0.43077  -0.42906  -0.42821  -0.42799  -0.42676
 Alpha  occ. eigenvalues --   -0.42528  -0.42374  -0.42139  -0.42089  -0.41557
 Alpha  occ. eigenvalues --   -0.41495  -0.41378  -0.41285  -0.41062  -0.40956
 Alpha  occ. eigenvalues --   -0.40924  -0.40841  -0.40711  -0.40624  -0.40594
 Alpha  occ. eigenvalues --   -0.40504  -0.40448  -0.40401  -0.40334  -0.40257
 Alpha  occ. eigenvalues --   -0.40110  -0.40089  -0.40072  -0.39864  -0.39810
 Alpha  occ. eigenvalues --   -0.39797  -0.39737  -0.39696  -0.39676  -0.39648
 Alpha  occ. eigenvalues --   -0.39516  -0.39470  -0.39447  -0.39386  -0.39228
 Alpha  occ. eigenvalues --   -0.39120  -0.39083  -0.38753  -0.38721  -0.38669
 Alpha  occ. eigenvalues --   -0.38600  -0.38481  -0.38367  -0.38341  -0.38037
 Alpha  occ. eigenvalues --   -0.37748  -0.37723  -0.37282  -0.34973  -0.34878
 Alpha  occ. eigenvalues --   -0.32556  -0.25478  -0.24419  -0.23553  -0.21689
 Alpha  occ. eigenvalues --   -0.21473
 Alpha virt. eigenvalues --   -0.06194  -0.05570  -0.04567  -0.03473  -0.03019
 Alpha virt. eigenvalues --   -0.02851  -0.02555  -0.02441   0.00617   0.00737
 Alpha virt. eigenvalues --    0.02044   0.03206   0.03735   0.04688   0.04787
 Alpha virt. eigenvalues --    0.04924   0.05581   0.05689   0.06355   0.06512
 Alpha virt. eigenvalues --    0.07850   0.09225   0.09305   0.09791   0.10376
 Alpha virt. eigenvalues --    0.10551   0.11063   0.12216   0.12390   0.12504
 Alpha virt. eigenvalues --    0.13038   0.13284   0.13358   0.13542   0.13756
 Alpha virt. eigenvalues --    0.14137   0.14390   0.14542   0.15207   0.15292
 Alpha virt. eigenvalues --    0.15694   0.15882   0.16165   0.16452   0.16498
 Alpha virt. eigenvalues --    0.16759   0.17425   0.17662   0.19462   0.19512
 Alpha virt. eigenvalues --    0.19829   0.19976   0.20224   0.20258   0.20519
 Alpha virt. eigenvalues --    0.20540   0.20669   0.21005   0.21871   0.22492
 Alpha virt. eigenvalues --    0.23519   0.24017   0.25151   0.26231   0.26868
 Alpha virt. eigenvalues --    0.27092   0.27665   0.28198   0.28258   0.28780
 Alpha virt. eigenvalues --    0.28913   0.29325   0.29525   0.29905   0.30392
 Alpha virt. eigenvalues --    0.31122   0.31331   0.31928   0.32093   0.32519
 Alpha virt. eigenvalues --    0.32875   0.32979   0.33499   0.33636   0.33768
 Alpha virt. eigenvalues --    0.34487   0.34852   0.35180   0.35389   0.36094
 Alpha virt. eigenvalues --    0.36503   0.37310   0.37349   0.38071   0.38851
 Alpha virt. eigenvalues --    0.38890   0.39312   0.39444   0.40427   0.41136
 Alpha virt. eigenvalues --    0.42514   0.43335   0.43384   0.44018   0.44440
 Alpha virt. eigenvalues --    0.44552   0.46246   0.46369   0.46872   0.47154
 Alpha virt. eigenvalues --    0.47395   0.47782   0.48227   0.49077   0.49969
 Alpha virt. eigenvalues --    0.51259   0.52521   0.52997   0.53279   0.53461
 Alpha virt. eigenvalues --    0.54569   0.55265   0.55672   0.55715   0.56533
 Alpha virt. eigenvalues --    0.56855   0.57002   0.58224   0.58561   0.58679
 Alpha virt. eigenvalues --    0.60419   0.60913   0.62276   0.62694   0.62961
 Alpha virt. eigenvalues --    0.63426   0.64952   0.65233   0.65644   0.65805
 Alpha virt. eigenvalues --    0.66225   0.66552   0.66953   0.67575   0.67660
 Alpha virt. eigenvalues --    0.67835   0.68685   0.68956   0.69474   0.70150
 Alpha virt. eigenvalues --    0.70687   0.70899   0.71694   0.72582   0.73538
 Alpha virt. eigenvalues --    0.74209   0.74440   0.74616   0.75419   0.75759
 Alpha virt. eigenvalues --    0.76046   0.76992   0.77436   0.77624   0.77907
 Alpha virt. eigenvalues --    0.78726   0.78909   0.79050   0.79752   0.80272
 Alpha virt. eigenvalues --    0.80317   0.81062   0.81211   0.81966   0.82663
 Alpha virt. eigenvalues --    0.82988   0.83465   0.85078   0.85635   0.86009
 Alpha virt. eigenvalues --    0.86753   0.87121   0.87238   0.87819   0.88095
 Alpha virt. eigenvalues --    0.88427   0.88975   0.89081   0.89334   0.90123
 Alpha virt. eigenvalues --    0.90363   0.90556   0.92198   0.92204   0.93802
 Alpha virt. eigenvalues --    0.94183   0.94815   0.95260   0.97497   0.98776
 Alpha virt. eigenvalues --    1.00874   1.00977   1.02561   1.02935   1.03033
 Alpha virt. eigenvalues --    1.03783   1.04657   1.04701   1.06176   1.07305
 Alpha virt. eigenvalues --    1.07831   1.08080   1.08459   1.08884   1.11231
 Alpha virt. eigenvalues --    1.11662   1.12466   1.12973   1.13691   1.15407
 Alpha virt. eigenvalues --    1.18141   1.26279   1.31387   1.40637   1.43045
 Alpha virt. eigenvalues --    2.20678   2.31710   2.33110   2.36156   2.39037
 Alpha virt. eigenvalues --    2.39050   2.40716   2.41954   2.42710   2.43988
 Alpha virt. eigenvalues --    2.45545   2.47321   2.47909   2.48608   2.50524
 Alpha virt. eigenvalues --    2.53405   2.54059   2.58385   2.66069   2.66093
 Alpha virt. eigenvalues --    2.66110   2.66150   2.66836   2.66888   2.66943
 Alpha virt. eigenvalues --    2.66974   2.66994   2.67022   2.67067   2.67113
 Alpha virt. eigenvalues --    2.67213   2.67296   2.67333   2.67345   2.67364
 Alpha virt. eigenvalues --    2.67393   2.67395   2.67430   2.67439   2.67491
 Alpha virt. eigenvalues --    2.67525   2.67558   2.67586   2.67592   2.67637
 Alpha virt. eigenvalues --    2.67683   2.67714   2.67728   2.67729   2.67757
 Alpha virt. eigenvalues --    2.67766   2.67803   2.67820   2.67822   2.67837
 Alpha virt. eigenvalues --    2.67862   2.67878   2.67906   2.67919   2.67930
 Alpha virt. eigenvalues --    2.67941   2.67973   2.67998   2.68039   2.68058
 Alpha virt. eigenvalues --    2.68074   2.68104   2.68115   2.68126   2.68141
 Alpha virt. eigenvalues --    2.68192   2.68216   2.68229   2.68308   2.68343
 Alpha virt. eigenvalues --    2.68372   2.68388   2.68393   2.68429   2.68451
 Alpha virt. eigenvalues --    2.68510   2.68514   2.68538   2.68554   2.68626
 Alpha virt. eigenvalues --    2.68659   2.68716   2.68741   2.68836   2.68850
 Alpha virt. eigenvalues --    2.68857   2.68935   2.68963   2.69032   2.69038
 Alpha virt. eigenvalues --    2.69098   2.69110   2.69113   2.69157   2.69180
 Alpha virt. eigenvalues --    2.69244   2.69286   2.69340   2.69425   2.69428
 Alpha virt. eigenvalues --    2.69509   2.69570   2.69597   2.69653   2.69782
 Alpha virt. eigenvalues --    2.69934   2.70054   2.70107   2.70143   2.70168
 Alpha virt. eigenvalues --    2.70243   2.70296   2.70298   2.70456   2.70635
 Alpha virt. eigenvalues --    2.70736   2.70767   2.70937   2.71022   2.71076
 Alpha virt. eigenvalues --    2.71150   2.71347   2.71400   2.71551   2.71606
 Alpha virt. eigenvalues --    2.71685   2.71732   2.71842   2.72056   2.72576
 Alpha virt. eigenvalues --    2.73435   2.73448   2.74382   2.75173   2.76932
 Alpha virt. eigenvalues --    2.78619   2.78997   2.81753   2.96761  54.37087
 Alpha virt. eigenvalues --   54.43369  54.44724  54.47065  54.48695  54.49632
 Alpha virt. eigenvalues --   54.50815  54.51787  54.52570  54.54650  54.55234
 Alpha virt. eigenvalues --   54.55586  54.57266  54.57621  54.61553  54.63487
 Alpha virt. eigenvalues --   54.64607  54.82083
          Condensed to atoms (all electrons):
               1          2          3          4          5          6
     1  Ag  18.343865  -0.160025  -0.013365  -0.066985  -0.000379   0.056703
     2  Ag  -0.160025  20.129762   0.270061   0.028094  -0.082723  -0.163644
     3  Ag  -0.013365   0.270061  18.964254  -0.057611  -0.137216   0.064263
     4  Ag  -0.066985   0.028094  -0.057611  18.926984  -0.057599  -0.168548
     5  Ag  -0.000379  -0.082723  -0.137216  -0.057599  18.964294   0.064256
     6  Ag   0.056703  -0.163644   0.064263  -0.168548   0.064256  18.827945
     7  Ag   0.034396  -0.064287  -0.039201   0.020158  -0.005396  -0.015134
     8  Ag  -0.104886   0.392690   0.033274   0.111629   0.003360  -0.120098
     9  Ag   0.002584  -0.055867  -0.000377  -0.066990  -0.013376   0.056703
    10  Ag  -0.030441  -0.055228   0.003363   0.111620   0.033241  -0.120092
    11  Ag   0.031607   0.003119  -0.009588  -0.058159  -0.009593   0.007307
    12  Ag   0.216813  -0.814180  -0.043942  -0.705058  -0.043933  -0.023780
    13  Ag  -0.040517  -0.040463   0.063528   0.013559   0.063538   0.015475
    14  Ag   0.055534  -0.087839   0.001111  -0.007559  -0.003043  -0.027860
    15  Ag  -0.055861   0.054568  -0.082734   0.028097   0.270061  -0.163610
    16  Ag   0.004187  -0.063109  -0.005396   0.020151  -0.039213  -0.015131
    17  Ag   0.000766  -0.003482  -0.003044  -0.007561   0.001120  -0.027862
    18  Ag   0.041437  -0.033758  -0.093782  -0.210333  -0.093780   0.016679
               7          8          9         10         11         12
     1  Ag   0.034396  -0.104886   0.002584  -0.030441   0.031607   0.216813
     2  Ag  -0.064287   0.392690  -0.055867  -0.055228   0.003119  -0.814180
     3  Ag  -0.039201   0.033274  -0.000377   0.003363  -0.009588  -0.043942
     4  Ag   0.020158   0.111629  -0.066990   0.111620  -0.058159  -0.705058
     5  Ag  -0.005396   0.003360  -0.013376   0.033241  -0.009593  -0.043933
     6  Ag  -0.015134  -0.120098   0.056703  -0.120092   0.007307  -0.023780
     7  Ag  18.548671   0.032482   0.004188  -0.127396  -0.004345   0.177022
     8  Ag   0.032482  19.233260  -0.030441  -0.065706  -0.020353  -0.353214
     9  Ag   0.004188  -0.030441  18.343875  -0.104896   0.031607   0.216814
    10  Ag  -0.127396  -0.065706  -0.104896  19.233343  -0.020348  -0.353218
    11  Ag  -0.004345  -0.020353   0.031607  -0.020348  18.364584   0.187208
    12  Ag   0.177022  -0.353214   0.216814  -0.353218   0.187208  26.388305
    13  Ag   0.020883   0.027196  -0.040520   0.027198  -0.010661  -0.221026
    14  Ag  -0.008141   0.081357   0.000766  -0.030192   0.067095   0.159532
    15  Ag  -0.063114  -0.055242  -0.160039   0.392690   0.003117  -0.814201
    16  Ag   0.082927  -0.127390   0.034395   0.032501  -0.004345   0.177022
    17  Ag  -0.002416  -0.030187   0.055535   0.081344   0.067097   0.159541
    18  Ag  -0.013567   0.025867   0.041440   0.025872  -0.041212  -0.122768
              13         14         15         16         17         18
     1  Ag  -0.040517   0.055534  -0.055861   0.004187   0.000766   0.041437
     2  Ag  -0.040463  -0.087839   0.054568  -0.063109  -0.003482  -0.033758
     3  Ag   0.063528   0.001111  -0.082734  -0.005396  -0.003044  -0.093782
     4  Ag   0.013559  -0.007559   0.028097   0.020151  -0.007561  -0.210333
     5  Ag   0.063538  -0.003043   0.270061  -0.039213   0.001120  -0.093780
     6  Ag   0.015475  -0.027860  -0.163610  -0.015131  -0.027862   0.016679
     7  Ag   0.020883  -0.008141  -0.063114   0.082927  -0.002416  -0.013567
     8  Ag   0.027196   0.081357  -0.055242  -0.127390  -0.030187   0.025867
     9  Ag  -0.040520   0.000766  -0.160039   0.034395   0.055535   0.041440
    10  Ag   0.027198  -0.030192   0.392690   0.032501   0.081344   0.025872
    11  Ag  -0.010661   0.067095   0.003117  -0.004345   0.067097  -0.041212
    12  Ag  -0.221026   0.159532  -0.814201   0.177022   0.159541  -0.122768
    13  Ag  18.581120  -0.009389  -0.040467   0.020883  -0.009389  -0.087489
    14  Ag  -0.009389  18.354113  -0.003480  -0.002419   0.015433   0.053103
    15  Ag  -0.040467  -0.003480  20.129828  -0.064281  -0.087857  -0.033735
    16  Ag   0.020883  -0.002419  -0.064281  18.548664  -0.008145  -0.013567
    17  Ag  -0.009389   0.015433  -0.087857  -0.008145  18.354112   0.053093
    18  Ag  -0.087489   0.053103  -0.033735  -0.013567   0.053093  19.860085
 Mulliken charges:
               1
     1  Ag   0.684566
     2  Ag  -0.253689
     3  Ag   0.086403
     4  Ag   1.146111
     5  Ag   0.086380
     6  Ag   0.736427
     7  Ag   0.422270
     8  Ag  -0.033598
     9  Ag   0.684599
    10  Ag  -0.033654
    11  Ag   0.415864
    12  Ag  -5.186938
    13  Ag   0.666540
    14  Ag   0.391875
    15  Ag  -0.253738
    16  Ag   0.422266
    17  Ag   0.391901
    18  Ag  -0.373586
 Sum of Mulliken charges =  -0.00000
 Mulliken charges with hydrogens summed into heavy atoms:
               1
     1  Ag   0.684566
     2  Ag  -0.253689
     3  Ag   0.086403
     4  Ag   1.146111
     5  Ag   0.086380
     6  Ag   0.736427
     7  Ag   0.422270
     8  Ag  -0.033598
     9  Ag   0.684599
    10  Ag  -0.033654
    11  Ag   0.415864
    12  Ag  -5.186938
    13  Ag   0.666540
    14  Ag   0.391875
    15  Ag  -0.253738
    16  Ag   0.422266
    17  Ag   0.391901
    18  Ag  -0.373586
 Electronic spatial extent (au):  <R**2>=          13182.9362
 Charge=             -0.0000 electrons
 Dipole moment (field-independent basis, Debye):
    X=             -0.0000    Y=              1.3847    Z=             -0.1674  Tot=              1.3948
 Quadrupole moment (field-independent basis, Debye-Ang):
   XX=           -341.2474   YY=           -346.5492   ZZ=           -353.8899
   XY=              0.0002   XZ=              0.0001   YZ=             -0.0983
 Traceless Quadrupole moment (field-independent basis, Debye-Ang):
   XX=              5.9814   YY=              0.6796   ZZ=             -6.6610
   XY=              0.0002   XZ=              0.0001   YZ=             -0.0983
 Octapole moment (field-independent basis, Debye-Ang**2):
  XXX=             -0.0027  YYY=              1.2735  ZZZ=             -0.0145  XYY=              0.0002
  XXY=            -12.6538  XXZ=             -5.3820  XZZ=              0.0004  YZZ=             27.9772
  YYZ=              2.0775  XYZ=              0.0002
 Hexadecapole moment (field-independent basis, Debye-Ang**3):
 XXXX=          -8863.7805 YYYY=          -8241.5418 ZZZZ=          -5060.8023 XXXY=              0.0013
 XXXZ=              0.0036 YYYX=              0.0027 YYYZ=             -2.7900 ZZZX=              0.0005
 ZZZY=              5.7275 XXYY=          -2902.1798 XXZZ=          -2458.2576 YYZZ=          -2288.1340
 XXYZ=              4.7792 YYXZ=             -0.0011 ZZXY=              0.0009
 N-N= 7.274138617180D+03 E-N=-2.025437703009D+04  KE= 1.008984713786D+03
 No NMR shielding tensors so no spin-rotation constants.
 Leave Link  601 at Wed Mar  5 06:23:29 2025, MaxMem=  2097152000 cpu:               0.9 elap:               0.3
 (Enter /nvme/h/buildsets/eb_nepheli/software/Gaussian/16.C.01-AVX2/g16/l701.exe)
 ... and contract with generalized density number  0.
 Compute integral first derivatives.
 R6Disp: Adding Grimme-D2 dispersion energy 1st derivatives to the gradient.
   1 Symmetry operations used in ECPInt.
 ECPInt:  NShTT=   19701 NPrTT=   58923 LenC2=   18611 LenP2D=   44875.
 LDataN:  DoStor=T MaxTD1= 8 Len=  415
 Leave Link  701 at Wed Mar  5 06:23:43 2025, MaxMem=  2097152000 cpu:              54.1 elap:              13.6
 (Enter /nvme/h/buildsets/eb_nepheli/software/Gaussian/16.C.01-AVX2/g16/l702.exe)
 L702 exits ... SP integral derivatives will be done elsewhere.
 Leave Link  702 at Wed Mar  5 06:23:43 2025, MaxMem=  2097152000 cpu:               0.0 elap:               0.0
 (Enter /nvme/h/buildsets/eb_nepheli/software/Gaussian/16.C.01-AVX2/g16/l703.exe)
 Integral derivatives from FoFJK, PRISM(SPDF).
 Compute integral first derivatives, UseDBF=F ICtDFT=           0.
 Calling FoFJK, ICntrl=      2127 FMM=F ISym2X=0 I1Cent= 0 IOpClX= 0 NMat=1 NMatS=1 NMatT=0.
 FoFJK:  IHMeth= 1 ICntrl=    2127 DoSepK=T KAlg= 0 I1Cent=           0 FoldK=F
 IRaf=         1 NMat=       1 IRICut=       1 DoRegI=T DoRafI=F ISym2E= 0 IDoP0=0 IntGTp=1.
 FoFCou: FMM=F IPFlag=           0 FMFlag=      100000 FMFlg1=         800
         NFxFlg=           0 DoJE=F BraDBF=F KetDBF=F FulRan=T
         wScrn=  0.000000 ICntrl=      2527 IOpCl=  0 I1Cent=           0 NGrid=           0
         NMat0=    1 NMatS0=      1 NMatT0=    0 NMatD0=    1 NMtDS0=    0 NMtDT0=    0
 Symmetry not used in FoFCou.
 Defaulting to unpruned grid for atomic number  47.
 Defaulting to unpruned grid for atomic number  47.
 Defaulting to unpruned grid for atomic number  47.
 Defaulting to unpruned grid for atomic number  47.
 Leave Link  703 at Wed Mar  5 06:30:36 2025, MaxMem=  2097152000 cpu:            1639.7 elap:             413.1
 (Enter /nvme/h/buildsets/eb_nepheli/software/Gaussian/16.C.01-AVX2/g16/l716.exe)
 Dipole        =-9.06175514D-06 5.44800575D-01-6.58523370D-02
 ***** Axes restored to original set *****
 -------------------------------------------------------------------
 Center     Atomic                   Forces (Hartrees/Bohr)
 Number     Number              X              Y              Z
 -------------------------------------------------------------------
      1       47           0.000030972   -0.000008407    0.000006098
      2       47          -0.000021061   -0.000027714    0.000016778
      3       47          -0.000006514    0.000020202   -0.000041282
      4       47           0.000000006   -0.000041861   -0.000002835
      5       47           0.000006709    0.000020501   -0.000041668
      6       47          -0.000000055   -0.000001330    0.000038804
      7       47          -0.000014878    0.000029878   -0.000007222
      8       47           0.000008510   -0.000029364    0.000034077
      9       47          -0.000030658   -0.000008485    0.000006130
     10       47          -0.000008580   -0.000029385    0.000034508
     11       47          -0.000000031    0.000011982    0.000029444
     12       47          -0.000000702   -0.000014613   -0.000001473
     13       47           0.000000093   -0.000002748   -0.000034712
     14       47          -0.000030260    0.000041480   -0.000009104
     15       47           0.000021030   -0.000027749    0.000016604
     16       47           0.000015067    0.000029618   -0.000007203
     17       47           0.000030469    0.000041551   -0.000009120
     18       47          -0.000000118   -0.000003556   -0.000027824
 -------------------------------------------------------------------
 Cartesian Forces:  Max     0.000041861 RMS     0.000022751
 Z-matrix is all fixed cartesians, so copy forces.
 Leave Link  716 at Wed Mar  5 06:30:37 2025, MaxMem=  2097152000 cpu:               0.1 elap:               0.0
 (Enter /nvme/h/buildsets/eb_nepheli/software/Gaussian/16.C.01-AVX2/g16/l103.exe)

 GradGradGradGradGradGradGradGradGradGradGradGradGradGradGradGradGradGrad
 Berny optimization.
 Search for a local minimum.
 Step number   1 out of a maximum of    2
 All quantities printed in internal units (Hartrees-Bohrs-Radians)
 Second derivative matrix not updated -- first step.
 ITU=  0
     Eigenvalues ---    0.11557   0.12615   0.14143   0.15170   0.15376
     Eigenvalues ---    0.17554   0.18541   0.19808   0.22225   0.23774
     Eigenvalues ---    0.26301   0.27484   0.27507   0.28183   0.29790
     Eigenvalues ---    0.29823   0.32870   0.34016   0.34170   0.37600
     Eigenvalues ---    0.38593   0.39286   0.41910   0.43487   0.44841
     Eigenvalues ---    0.45046   0.45773   0.47489   0.48273   0.49962
     Eigenvalues ---    0.50470   0.51019   0.53279   0.53995   0.54547
     Eigenvalues ---    0.56631   0.57905   0.58347   0.59889   0.61247
     Eigenvalues ---    0.63325   0.65514   0.67633   0.68840   0.93906
     Eigenvalues ---    1.62852   3.06048   3.56797
 Angle between quadratic step and forces=  20.84 degrees.
 Linear search not attempted -- first point.
 B after Tr=     0.000000   -0.000000   -0.000000
         Rot=    1.000000    0.000000    0.000000    0.000000 Ang=   0.00 deg.
 Variable       Old X    -DE/DX   Delta X   Delta X   Delta X     New X
                                 (Linear)    (Quad)   (Total)
    X1        7.53603   0.00003   0.00000   0.00012   0.00012   7.53615
    Y1       -1.52936  -0.00001   0.00000  -0.00001  -0.00001  -1.52936
    Z1       -1.49340   0.00001   0.00000   0.00003   0.00003  -1.49337
    X2        2.65495  -0.00002   0.00000  -0.00003  -0.00003   2.65491
    Y2       -2.49912  -0.00003   0.00000  -0.00004  -0.00004  -2.49915
    Z2       -3.06620   0.00002   0.00000   0.00005   0.00005  -3.06615
    X3        4.55711  -0.00001   0.00000  -0.00000  -0.00000   4.55711
    Y3        2.79007   0.00002   0.00000   0.00004   0.00004   2.79012
    Z3       -2.42100  -0.00004   0.00000  -0.00008  -0.00008  -2.42108
    X4        0.00002   0.00000   0.00000  -0.00000  -0.00000   0.00002
    Y4        1.82815  -0.00004   0.00000  -0.00018  -0.00018   1.82797
    Z4        5.33102  -0.00000   0.00000   0.00001   0.00001   5.33103
    X5       -4.55703   0.00001   0.00000   0.00001   0.00001  -4.55703
    Y5        2.79017   0.00002   0.00000   0.00004   0.00004   2.79021
    Z5       -2.42093  -0.00004   0.00000  -0.00008  -0.00008  -2.42102
    X6        0.00001  -0.00000   0.00000  -0.00000  -0.00000   0.00001
    Y6        1.61099  -0.00000   0.00000  -0.00002  -0.00002   1.61097
    Z6       -5.23708   0.00004   0.00000   0.00007   0.00007  -5.23701
    X7        2.92077  -0.00001   0.00000  -0.00004  -0.00004   2.92073
    Y7        5.40072   0.00003   0.00000   0.00005   0.00005   5.40077
    Z7        2.39122  -0.00001   0.00000   0.00001   0.00001   2.39124
    X8        4.47048   0.00001   0.00000   0.00001   0.00001   4.47050
    Y8        0.10399  -0.00003   0.00000  -0.00008  -0.00008   0.10390
    Z8        2.87241   0.00003   0.00000   0.00006   0.00006   2.87247
    X9       -7.53611  -0.00003   0.00000  -0.00011  -0.00011  -7.53623
    Y9       -1.52918  -0.00001   0.00000  -0.00001  -0.00001  -1.52918
    Z9       -1.49339   0.00001   0.00000   0.00003   0.00003  -1.49336
   X10       -4.47046  -0.00001   0.00000  -0.00001  -0.00001  -4.47047
   Y10        0.10411  -0.00003   0.00000  -0.00008  -0.00008   0.10403
   Z10        2.87236   0.00003   0.00000   0.00006   0.00006   2.87241
   X11       -0.00009  -0.00000   0.00000  -0.00000  -0.00000  -0.00009
   Y11       -6.57818   0.00001   0.00000   0.00008   0.00008  -6.57810
   Z11       -0.90180   0.00003   0.00000   0.00008   0.00008  -0.90172
   X12        0.00006  -0.00000   0.00000  -0.00000  -0.00000   0.00006
   Y12        1.56977  -0.00001   0.00000  -0.00003  -0.00003   1.56974
   Z12        0.09597  -0.00000   0.00000  -0.00001  -0.00001   0.09596
   X13        0.00007   0.00000   0.00000   0.00000   0.00000   0.00007
   Y13        6.24364  -0.00000   0.00000   0.00001   0.00001   6.24365
   Z13       -2.38660  -0.00003   0.00000  -0.00010  -0.00010  -2.38670
   X14        4.61803  -0.00003   0.00000  -0.00009  -0.00009   4.61794
   Y14       -5.01724   0.00004   0.00000   0.00011   0.00011  -5.01713
   Z14        1.53214  -0.00001   0.00000  -0.00005  -0.00005   1.53209
   X15       -2.65503   0.00002   0.00000   0.00003   0.00003  -2.65499
   Y15       -2.49903  -0.00003   0.00000  -0.00004  -0.00004  -2.49907
   Z15       -3.06615   0.00002   0.00000   0.00005   0.00005  -3.06610
   X16       -2.92061   0.00002   0.00000   0.00004   0.00004  -2.92057
   Y16        5.40081   0.00003   0.00000   0.00005   0.00005   5.40086
   Z16        2.39121  -0.00001   0.00000   0.00001   0.00001   2.39122
   X17       -4.61817   0.00003   0.00000   0.00009   0.00009  -4.61808
   Y17       -5.01713   0.00004   0.00000   0.00011   0.00011  -5.01701
   Z17        1.53216  -0.00001   0.00000  -0.00005  -0.00005   1.53211
   X18       -0.00004  -0.00000   0.00000  -0.00000  -0.00000  -0.00004
   Y18       -3.17319  -0.00000   0.00000  -0.00003  -0.00003  -3.17322
   Z18        3.46805  -0.00003   0.00000  -0.00008  -0.00008   3.46797
         Item               Value     Threshold  Converged?
 Maximum Force            0.000042     0.000450     YES
 RMS     Force            0.000023     0.000300     YES
 Maximum Displacement     0.000179     0.001800     YES
 RMS     Displacement     0.000061     0.001200     YES
 Predicted change in Energy=-3.483925D-08
 Optimization completed.
    -- Stationary point found.
 GradGradGradGradGradGradGradGradGradGradGradGradGradGradGradGradGradGrad

 Leave Link  103 at Wed Mar  5 06:30:37 2025, MaxMem=  2097152000 cpu:               0.3 elap:               0.1
 (Enter /nvme/h/buildsets/eb_nepheli/software/Gaussian/16.C.01-AVX2/g16/l9999.exe)
 Unable to Open any file for archive entry.
 1\1\GINC-NE22\Force\RwB97XD\def2SVP\Ag18\NPATSALIDIS\05-Mar-2025\0\\#p
  wb97xd/def2SVP scf(xqc) scfcyc=999 force\\Template file\\0,1\Ag,3.987
 896,-0.8093,-0.790271\Ag,1.404937,-1.322475,-1.622563\Ag,2.411519,1.47
 6443,-1.281136\Ag,0.000011,0.967417,2.821055\Ag,-2.411478,1.476492,-1.
 281103\Ag,0.000004,0.852498,-2.771345\Ag,1.545606,2.857937,1.265381\Ag
 ,2.365678,0.055028,1.520016\Ag,-3.987939,-0.809205,-0.790266\Ag,-2.365
 663,0.055092,1.519986\Ag,-0.000047,-3.481022,-0.477214\Ag,0.000033,0.8
 30688,0.050786\Ag,0.000038,3.303991,-1.262936\Ag,2.443755,-2.655008,0.
 810775\Ag,-1.404979,-1.32243,-1.622535\Ag,-1.545521,2.857984,1.265373\
 Ag,-2.44383,-2.654949,0.810783\Ag,-0.000021,-1.67918,1.835212\\Version
 =ES64L-G16RevC.01\State=1-A\HF=-2646.6949037\RMSD=6.775e-09\RMSF=2.275
 e-05\Dipole=-0.0000113,0.5440601,-0.0717133\Quadrupole=4.4470611,0.503
 0605,-4.9501216,0.0001536,0.0000545,-0.1317971\PG=C01 [X(Ag18)]\\@
 The archive entry for this job was punched.


 THE MORE PROGRESS PHYSICAL SCIENCES MAKE, THE MORE THEY TEND TO ENTER
 THE DOMAIN OF MATHEMATICS, WHICH IS A KIND OF CENTRE TO WHICH THEY ALL
 CONVERGE.  WE MAY EVEN JUDGE THE DEGREE OF PERFECTION TO WHICH A 
 SCIENCE HAS ARRIVED BY THE FACILITY WITH WHICH IT MAY BE SUBMITTED
 TO CALCULATION.

                               -- ADOLPHE QUETELET, 1796-1874
 Job cpu time:       0 days  2 hours 11 minutes 26.3 seconds.
 Elapsed time:       0 days  0 hours 33 minutes  3.7 seconds.
 File lengths (MBytes):  RWF=    171 Int=      0 D2E=      0 Chk=     19 Scr=      1
 Normal termination of Gaussian 16 at Wed Mar  5 06:30:37 2025.
