 Entering Gaussian System, Link 0=g16
 Initial command:
 /nvme/h/buildsets/eb_nepheli/software/Gaussian/16.C.01-AVX2/g16/l1.exe "/onyx/data/simea/nikolas/postDoc/Active-Learning-Package/Ag-mainy/init_data/Ag4/Gau-65292.inp" -scrdir="/onyx/data/simea/nikolas/postDoc/Active-Learning-Package/Ag-mainy/init_data/Ag4/"
 Entering Link 1 = /nvme/h/buildsets/eb_nepheli/software/Gaussian/16.C.01-AVX2/g16/l1.exe PID=     65293.
  
 Copyright (c) 1988-2019, Gaussian, Inc.  All Rights Reserved.
  
 This is part of the Gaussian(R) 16 program.  It is based on
 the Gaussian(R) 09 system (copyright 2009, Gaussian, Inc.),
 the Gaussian(R) 03 system (copyright 2003, Gaussian, Inc.),
 the Gaussian(R) 98 system (copyright 1998, Gaussian, Inc.),
 the Gaussian(R) 94 system (copyright 1995, Gaussian, Inc.),
 the Gaussian 92(TM) system (copyright 1992, Gaussian, Inc.),
 the Gaussian 90(TM) system (copyright 1990, Gaussian, Inc.),
 the Gaussian 88(TM) system (copyright 1988, Gaussian, Inc.),
 the Gaussian 86(TM) system (copyright 1986, Carnegie Mellon
 University), and the Gaussian 82(TM) system (copyright 1983,
 Carnegie Mellon University). Gaussian is a federally registered
 trademark of Gaussian, Inc.
  
 This software contains proprietary and confidential information,
 including trade secrets, belonging to Gaussian, Inc.
  
 This software is provided under written license and may be
 used, copied, transmitted, or stored only in accord with that
 written license.
  
 The following legend is applicable only to US Government
 contracts under FAR:
  
                    RESTRICTED RIGHTS LEGEND
  
 Use, reproduction and disclosure by the US Government is
 subject to restrictions as set forth in subparagraphs (a)
 and (c) of the Commercial Computer Software - Restricted
 Rights clause in FAR 52.227-19.
  
 Gaussian, Inc.
 340 Quinnipiac St., Bldg. 40, Wallingford CT 06492
  
  
 ---------------------------------------------------------------
 Warning -- This program may not be used in any manner that
 competes with the business of Gaussian, Inc. or will provide
 assistance to any competitor of Gaussian, Inc.  The licensee
 of this program is prohibited from giving any competitor of
 Gaussian, Inc. access to this program.  By using this program,
 the user acknowledges that Gaussian, Inc. is engaged in the
 business of creating and licensing software in the field of
 computational chemistry and represents and warrants to the
 licensee that it is not a competitor of Gaussian, Inc. and that
 it will not use this program in any manner prohibited above.
 ---------------------------------------------------------------
  

 Cite this work as:
 Gaussian 16, Revision C.01,
 M. J. Frisch, G. W. Trucks, H. B. Schlegel, G. E. Scuseria, 
 M. A. Robb, J. R. Cheeseman, G. Scalmani, V. Barone, 
 G. A. Petersson, H. Nakatsuji, X. Li, M. Caricato, A. V. Marenich, 
 J. Bloino, B. G. Janesko, R. Gomperts, B. Mennucci, H. P. Hratchian, 
 J. V. Ortiz, A. F. Izmaylov, J. L. Sonnenberg, D. Williams-Young, 
 F. Ding, F. Lipparini, F. Egidi, J. Goings, B. Peng, A. Petrone, 
 T. Henderson, D. Ranasinghe, V. G. Zakrzewski, J. Gao, N. Rega, 
 G. Zheng, W. Liang, M. Hada, M. Ehara, K. Toyota, R. Fukuda, 
 J. Hasegawa, M. Ishida, T. Nakajima, Y. Honda, O. Kitao, H. Nakai, 
 T. Vreven, K. Throssell, J. A. Montgomery, Jr., J. E. Peralta, 
 F. Ogliaro, M. J. Bearpark, J. J. Heyd, E. N. Brothers, K. N. Kudin, 
 V. N. Staroverov, T. A. Keith, R. Kobayashi, J. Normand, 
 K. Raghavachari, A. P. Rendell, J. C. Burant, S. S. Iyengar, 
 J. Tomasi, M. Cossi, J. M. Millam, M. Klene, C. Adamo, R. Cammi, 
 J. W. Ochterski, R. L. Martin, K. Morokuma, O. Farkas, 
 J. B. Foresman, and D. J. Fox, Gaussian, Inc., Wallingford CT, 2019.
 
 ******************************************
 Gaussian 16:  ES64L-G16RevC.01  3-Jul-2019
                25-Feb-2025 
 ******************************************
 %nprocshared=4
 Will use up to    4 processors via shared memory.
 %mem=16000MB
 -------------------------------------------
 #p wb97xd/def2SVP scf(xqc) scfcyc=999 force
 -------------------------------------------
 1/10=7,30=1,38=1/1,3;
 2/12=2,17=6,18=5,40=1/2;
 3/5=43,7=101,11=2,25=1,30=1,71=1,74=-58/1,2,3;
 4//1;
 5/5=2,7=999,8=3,13=1,38=5/2,8;
 6/7=2,8=2,9=2,10=2,28=1/1;
 7/29=1/1,2,3,16;
 1/10=7,30=1/3;
 99//99;
 Leave Link    1 at Tue Feb 25 19:59:16 2025, MaxMem=  2097152000 cpu:               0.5 elap:               0.2
 (Enter /nvme/h/buildsets/eb_nepheli/software/Gaussian/16.C.01-AVX2/g16/l101.exe)
 -------------
 Template file
 -------------
 Symbolic Z-matrix:
 Charge =  0 Multiplicity = 1
 Ag                    0.        1.31737   0. 
 Ag                    0.        0.        2.45155 
 Ag                    0.       -1.31737   0. 
 Ag                    0.        0.       -2.45155 
 
 ITRead=  0  0  0  0
 MicOpt= -1 -1 -1 -1
 NAtoms=      4 NQM=        4 NQMF=       0 NMMI=      0 NMMIF=      0
                NMic=       0 NMicF=      0.
                    Isotopes and Nuclear Properties:
 (Nuclear quadrupole moments (NQMom) in fm**2, nuclear magnetic moments (NMagM)
  in nuclear magnetons)

  Atom         1           2           3           4
 IAtWgt=         107         107         107         107
 AtmWgt= 106.9050900 106.9050900 106.9050900 106.9050900
 NucSpn=           1           1           1           1
 AtZEff=  -0.0000000  -0.0000000  -0.0000000  -0.0000000
 NQMom=    0.0000000   0.0000000   0.0000000   0.0000000
 NMagM=   -0.1135700  -0.1135700  -0.1135700  -0.1135700
 AtZNuc=  47.0000000  47.0000000  47.0000000  47.0000000
 Leave Link  101 at Tue Feb 25 19:59:16 2025, MaxMem=  2097152000 cpu:               0.2 elap:               0.1
 (Enter /nvme/h/buildsets/eb_nepheli/software/Gaussian/16.C.01-AVX2/g16/l103.exe)

 GradGradGradGradGradGradGradGradGradGradGradGradGradGradGradGradGradGrad
 Berny optimization.
 Initialization pass.
 Trust Radius=3.00D-01 FncErr=1.00D-07 GrdErr=1.00D-07 EigMax=2.50D+02 EigMin=1.00D-04
 Number of steps in this run=      2 maximum allowed number of steps=      2.
 GradGradGradGradGradGradGradGradGradGradGradGradGradGradGradGradGradGrad

 Leave Link  103 at Tue Feb 25 19:59:16 2025, MaxMem=  2097152000 cpu:               0.0 elap:               0.0
 (Enter /nvme/h/buildsets/eb_nepheli/software/Gaussian/16.C.01-AVX2/g16/l202.exe)
                          Input orientation:                          
 ---------------------------------------------------------------------
 Center     Atomic      Atomic             Coordinates (Angstroms)
 Number     Number       Type             X           Y           Z
 ---------------------------------------------------------------------
      1         47           0        0.000000    1.317371    0.000000
      2         47           0        0.000000    0.000000    2.451551
      3         47           0        0.000000   -1.317371    0.000000
      4         47           0        0.000000    0.000000   -2.451551
 ---------------------------------------------------------------------
                    Distance matrix (angstroms):
                    1          2          3          4
     1  Ag   0.000000
     2  Ag   2.783086   0.000000
     3  Ag   2.634742   2.783086   0.000000
     4  Ag   2.783086   4.903102   2.783086   0.000000
 Stoichiometry    Ag4
 Framework group  D2H[C2'(Ag.Ag),C2"(Ag.Ag)]
 Deg. of freedom     2
 Full point group                 D2H     NOp   8
 Largest Abelian subgroup         D2H     NOp   8
 Largest concise Abelian subgroup D2      NOp   4
                         Standard orientation:                         
 ---------------------------------------------------------------------
 Center     Atomic      Atomic             Coordinates (Angstroms)
 Number     Number       Type             X           Y           Z
 ---------------------------------------------------------------------
      1         47           0        0.000000    1.317371    0.000000
      2         47           0        0.000000    0.000000    2.451551
      3         47           0       -0.000000   -1.317371    0.000000
      4         47           0        0.000000    0.000000   -2.451551
 ---------------------------------------------------------------------
 Rotational constants (GHZ):           1.3619859           0.3932846           0.3051656
 Leave Link  202 at Tue Feb 25 19:59:17 2025, MaxMem=  2097152000 cpu:               0.0 elap:               0.0
 (Enter /nvme/h/buildsets/eb_nepheli/software/Gaussian/16.C.01-AVX2/g16/l301.exe)
 Standard basis: def2SVP (5D, 7F)
 Ernie: Thresh=  0.10000D-02 Tol=  0.10000D-05 Strict=F.
 There are    34 symmetry adapted cartesian basis functions of AG  symmetry.
 There are    11 symmetry adapted cartesian basis functions of B1G symmetry.
 There are    11 symmetry adapted cartesian basis functions of B2G symmetry.
 There are    16 symmetry adapted cartesian basis functions of B3G symmetry.
 There are     6 symmetry adapted cartesian basis functions of AU  symmetry.
 There are    25 symmetry adapted cartesian basis functions of B1U symmetry.
 There are    25 symmetry adapted cartesian basis functions of B2U symmetry.
 There are    16 symmetry adapted cartesian basis functions of B3U symmetry.
 There are    28 symmetry adapted basis functions of AG  symmetry.
 There are    10 symmetry adapted basis functions of B1G symmetry.
 There are    10 symmetry adapted basis functions of B2G symmetry.
 There are    14 symmetry adapted basis functions of B3G symmetry.
 There are     6 symmetry adapted basis functions of AU  symmetry.
 There are    21 symmetry adapted basis functions of B1U symmetry.
 There are    21 symmetry adapted basis functions of B2U symmetry.
 There are    14 symmetry adapted basis functions of B3U symmetry.
   124 basis functions,   260 primitive gaussians,   144 cartesian basis functions
    38 alpha electrons       38 beta electrons
       nuclear repulsion energy       386.0298226925 Hartrees.
 IExCor= 4639 DFT=T Ex+Corr=wB97XD ExCW=0 ScaHFX=  1.000000
 ScaDFX=  1.000000  1.000000  1.000000  1.000000 ScalE2=  1.000000  1.000000
 IRadAn=      5 IRanWt=     -1 IRanGd=            0 ICorTp=0 IEmpDi=121
 HFx  wShort=  0.000000 wLong=  0.200000 cFull=  0.222036 cShort=  0.000000 cLong=  0.777964
 DFx  wShort=  0.000000 wLong=  0.200000 cFull=  0.000000 cShort=  0.000000 cLong=  1.000000
 NAtoms=    4 NActive=    4 NUniq=    2 SFac= 4.00D+00 NAtFMM=   60 NAOKFM=F Big=F
 Integral buffers will be    131072 words long.
 Raffenetti 2 integral format.
 Two-electron integral symmetry is turned on.
 R6Disp:  Grimme-D2 Dispersion energy=       -0.0028295981 Hartrees.
 Nuclear repulsion after empirical dispersion term =      386.0269930944 Hartrees.
 Leave Link  301 at Tue Feb 25 19:59:17 2025, MaxMem=  2097152000 cpu:               0.1 elap:               0.0
 (Enter /nvme/h/buildsets/eb_nepheli/software/Gaussian/16.C.01-AVX2/g16/l302.exe)
 NPDir=0 NMtPBC=     1 NCelOv=     1 NCel=       1 NClECP=     1 NCelD=      1
         NCelK=      1 NCelE2=     1 NClLst=     1 CellRange=     0.0.
 One-electron integrals computed using PRISM.
 One-electron integral symmetry used in STVInt
   8 Symmetry operations used in ECPInt.
 ECPInt:  NShTT=     990 NPrTT=    2986 LenC2=     983 LenP2D=    2751.
 LDataN:  DoStor=T MaxTD1= 7 Len=  274
 NBasis=   124 RedAO= T EigKep=  2.80D-03  NBF=    28    10    10    14     6    21    21    14
 NBsUse=   124 1.00D-06 EigRej= -1.00D+00 NBFU=    28    10    10    14     6    21    21    14
 Precomputing XC quadrature grid using
 IXCGrd= 4 IRadAn=           5 IRanWt=          -1 IRanGd=           0 AccXCQ= 0.00D+00.
 Defaulting to unpruned grid for atomic number  47.
 Defaulting to unpruned grid for atomic number  47.
 Defaulting to unpruned grid for atomic number  47.
 Defaulting to unpruned grid for atomic number  47.
 Generated NRdTot=       0 NPtTot=           0 NUsed=           0 NTot=          32
 NSgBfM=   144   144   144   144   144 MxSgAt=     4 MxSgA2=     4.
 Leave Link  302 at Tue Feb 25 19:59:17 2025, MaxMem=  2097152000 cpu:               1.4 elap:               0.4
 (Enter /nvme/h/buildsets/eb_nepheli/software/Gaussian/16.C.01-AVX2/g16/l303.exe)
 DipDrv:  MaxL=1.
 Leave Link  303 at Tue Feb 25 19:59:18 2025, MaxMem=  2097152000 cpu:               0.1 elap:               0.0
 (Enter /nvme/h/buildsets/eb_nepheli/software/Gaussian/16.C.01-AVX2/g16/l401.exe)
 ExpMin= 3.75D-02 ExpMax= 9.09D+00 ExpMxC= 9.09D+00 IAcc=3 IRadAn=         5 AccDes= 0.00D+00
 Harris functional with IExCor= 4639 and IRadAn=       5 diagonalized for initial guess.
 HarFok:  IExCor= 4639 AccDes= 0.00D+00 IRadAn=         5 IDoV= 1 UseB2=F ITyADJ=14
 ICtDFT=  3500011 ScaDFX=  1.000000  1.000000  1.000000  1.000000
 Defaulting to unpruned grid for atomic number  47.
 FoFCou: FMM=F IPFlag=           0 FMFlag=      100000 FMFlg1=           0
         NFxFlg=           0 DoJE=T BraDBF=F KetDBF=T FulRan=T
         wScrn=  0.000000 ICntrl=       500 IOpCl=  0 I1Cent=   200000004 NGrid=           0
         NMat0=    1 NMatS0=      1 NMatT0=    0 NMatD0=    1 NMtDS0=    0 NMtDT0=    0
 Petite list used in FoFCou.
 Harris En= -572.338510234762    
 JPrj=0 DoOrth=F DoCkMO=F.
 Initial guess orbital symmetries:
       Occupied  (AG) (B2U) (B1U) (AG) (AG) (B1U) (B3G) (B3U) (B2U)
                 (B1G) (AG) (B1U) (B2U) (B3G) (B2G) (B3U) (AG)
                 (B1U) (B2U) (AG) (B3U) (B2G) (B1U) (AG) (AU) (B3G)
                 (B2U) (B1G) (AG) (B1U) (AG) (B3U) (B3G) (B1G)
                 (B2U) (B2G) (AU) (B1U)
       Virtual   (B3U) (AG) (B2U) (B3G) (AG) (B2G) (B1U) (B1G)
                 (B3U) (B2U) (B2U) (B1U) (AG) (AG) (B3G) (B1U)
                 (B2U) (AG) (AG) (B1U) (B3G) (B3U) (B2G) (B2U)
                 (B1G) (B3U) (AG) (B3G) (AU) (B2U) (B1U) (B2G)
                 (B3U) (AG) (B1G) (B1U) (B2U) (B3U) (AG) (B1U)
                 (AU) (B1G) (B3G) (B2G) (AG) (AG) (B3G) (B2U) (B2U)
                 (B1U) (AG) (B1U) (B2U) (AG) (AU) (AG) (B3U) (B3G)
                 (B2U) (B1G) (B1U) (B2G) (B3U) (B1G) (B1U) (B3G)
                 (AG) (B2G) (B1U) (B2U) (B3U) (B3G) (B3U) (B1G)
                 (AU) (B2G) (AG) (B1U) (B3G) (B2U) (B2U) (AG) (AG)
                 (B1U) (B2U) (AG)
 The electronic state of the initial guess is 1-AG.
 Leave Link  401 at Tue Feb 25 19:59:18 2025, MaxMem=  2097152000 cpu:               0.8 elap:               0.2
 (Enter /nvme/h/buildsets/eb_nepheli/software/Gaussian/16.C.01-AVX2/g16/l502.exe)
 Keep R1 ints in memory in symmetry-blocked form, NReq=67769473.
 FoFCou: FMM=F IPFlag=           0 FMFlag=           0 FMFlg1=           0
         NFxFlg=           0 DoJE=F BraDBF=F KetDBF=F FulRan=T
         wScrn=  0.000000 ICntrl=       600 IOpCl=  0 I1Cent=           0 NGrid=           0
         NMat0=    1 NMatS0=   7750 NMatT0=    0 NMatD0=    1 NMtDS0=    0 NMtDT0=    0
 Petite list used in FoFCou.
 Closed shell SCF:
 Using DIIS extrapolation, IDIIS=  1040.
 NGot=  2097152000 LenX=  2093246806 LenY=  2093225629
 Requested convergence on RMS density matrix=1.00D-08 within 128 cycles.
 Requested convergence on MAX density matrix=1.00D-06.
 Requested convergence on             energy=1.00D-06.
 No special actions if energy rises.

 Cycle   1  Pass 1  IDiag  1:
 Defaulting to unpruned grid for atomic number  47.
 Defaulting to unpruned grid for atomic number  47.
 Defaulting to unpruned grid for atomic number  47.
 Defaulting to unpruned grid for atomic number  47.
 E= -582.020975522678    
 DIIS: error= 2.57D-01 at cycle   1 NSaved=   1.
 NSaved= 1 IEnMin= 1 EnMin= -582.020975522678     IErMin= 1 ErrMin= 2.57D-01
 ErrMax= 2.57D-01  0.00D+00 EMaxC= 1.00D-01 BMatC= 6.77D+00 BMatP= 6.77D+00
 IDIUse=3 WtCom= 0.00D+00 WtEn= 1.00D+00
 Coeff-Com:  0.100D+01
 Coeff-En:   0.100D+01
 Coeff:      0.100D+01
 Gap=    -0.162 Goal=   None    Shift=    0.000
 GapD=   -0.162 DampG=0.250 DampE=0.125 DampFc=0.1250 IDamp=-1.
 Damping current iteration by 1.25D-01
 RMSDP=4.93D-02 MaxDP=1.55D+00              OVMax= 9.48D-01

 Cycle   2  Pass 1  IDiag  1:
 E= -583.390246806589     Delta-E=       -1.369271283910 Rises=F Damp=T
 DIIS: error= 1.94D-01 at cycle   2 NSaved=   2.
 NSaved= 2 IEnMin= 2 EnMin= -583.390246806589     IErMin= 2 ErrMin= 1.94D-01
 ErrMax= 1.94D-01  0.00D+00 EMaxC= 1.00D-01 BMatC= 3.79D+00 BMatP= 6.77D+00
 IDIUse=3 WtCom= 0.00D+00 WtEn= 1.00D+00
 Coeff-Com: -0.293D+01 0.393D+01
 Coeff-En:   0.000D+00 0.100D+01
 Coeff:      0.000D+00 0.100D+01
 Gap=     0.125 Goal=   None    Shift=    0.000
 RMSDP=4.25D-02 MaxDP=1.39D+00 DE=-1.37D+00 OVMax= 5.21D-02

 Cycle   3  Pass 1  IDiag  1:
 E= -585.993809398723     Delta-E=       -2.603562592134 Rises=F Damp=F
 DIIS: error= 1.07D-01 at cycle   3 NSaved=   3.
 NSaved= 3 IEnMin= 3 EnMin= -585.993809398723     IErMin= 3 ErrMin= 1.07D-01
 ErrMax= 1.07D-01  0.00D+00 EMaxC= 1.00D-01 BMatC= 2.00D+00 BMatP= 3.79D+00
 IDIUse=3 WtCom= 0.00D+00 WtEn= 1.00D+00
 EnCoef did   100 forward-backward iterations
 Coeff-Com: -0.334D+01 0.442D+01-0.856D-01
 Coeff-En:   0.245D+00 0.321D-02 0.752D+00
 Coeff:      0.245D+00 0.321D-02 0.752D+00
 Gap=     0.177 Goal=   None    Shift=    0.000
 RMSDP=1.88D-02 MaxDP=4.30D-01 DE=-2.60D+00 OVMax= 3.10D-01

 Cycle   4  Pass 1  IDiag  1:
 E= -587.985209123598     Delta-E=       -1.991399724875 Rises=F Damp=F
 DIIS: error= 2.45D-02 at cycle   4 NSaved=   4.
 NSaved= 4 IEnMin= 4 EnMin= -587.985209123598     IErMin= 4 ErrMin= 2.45D-02
 ErrMax= 2.45D-02  0.00D+00 EMaxC= 1.00D-01 BMatC= 1.11D-01 BMatP= 2.00D+00
 IDIUse=3 WtCom= 7.55D-01 WtEn= 2.45D-01
 Coeff-Com: -0.150D+01 0.197D+01 0.322D-01 0.500D+00
 Coeff-En:   0.000D+00 0.000D+00 0.000D+00 0.100D+01
 Coeff:     -0.113D+01 0.149D+01 0.243D-01 0.623D+00
 Gap=     0.178 Goal=   None    Shift=    0.000
 RMSDP=4.72D-03 MaxDP=8.28D-02 DE=-1.99D+00 OVMax= 7.08D-02

 Cycle   5  Pass 1  IDiag  1:
 E= -587.974185053566     Delta-E=        0.011024070033 Rises=F Damp=F
 DIIS: error= 2.68D-02 at cycle   5 NSaved=   5.
 NSaved= 5 IEnMin= 4 EnMin= -587.985209123598     IErMin= 4 ErrMin= 2.45D-02
 ErrMax= 2.68D-02  0.00D+00 EMaxC= 1.00D-01 BMatC= 9.28D-02 BMatP= 1.11D-01
 IDIUse=3 WtCom= 7.32D-01 WtEn= 2.68D-01
 Coeff-Com: -0.673D+00 0.892D+00-0.102D+00 0.250D+00 0.633D+00
 Coeff-En:   0.000D+00 0.000D+00 0.000D+00 0.541D+00 0.459D+00
 Coeff:     -0.492D+00 0.653D+00-0.750D-01 0.328D+00 0.586D+00
 Gap=     0.173 Goal=   None    Shift=    0.000
 RMSDP=2.06D-03 MaxDP=3.66D-02 DE= 1.10D-02 OVMax= 4.10D-02

 Cycle   6  Pass 1  IDiag  1:
 E= -588.047354113927     Delta-E=       -0.073169060361 Rises=F Damp=F
 DIIS: error= 1.04D-02 at cycle   6 NSaved=   6.
 NSaved= 6 IEnMin= 6 EnMin= -588.047354113927     IErMin= 6 ErrMin= 1.04D-02
 ErrMax= 1.04D-02  0.00D+00 EMaxC= 1.00D-01 BMatC= 1.30D-02 BMatP= 9.28D-02
 IDIUse=3 WtCom= 8.96D-01 WtEn= 1.04D-01
 Coeff-Com: -0.452D-01 0.589D-01 0.725D-02-0.590D-01-0.775D+00 0.181D+01
 Coeff-En:   0.000D+00 0.000D+00 0.000D+00 0.000D+00 0.000D+00 0.100D+01
 Coeff:     -0.406D-01 0.528D-01 0.650D-02-0.529D-01-0.695D+00 0.173D+01
 Gap=     0.177 Goal=   None    Shift=    0.000
 RMSDP=1.58D-03 MaxDP=4.24D-02 DE=-7.32D-02 OVMax= 2.91D-02

 Cycle   7  Pass 1  IDiag  1:
 E= -588.059838064050     Delta-E=       -0.012483950123 Rises=F Damp=F
 DIIS: error= 5.20D-04 at cycle   7 NSaved=   7.
 NSaved= 7 IEnMin= 7 EnMin= -588.059838064050     IErMin= 7 ErrMin= 5.20D-04
 ErrMax= 5.20D-04  0.00D+00 EMaxC= 1.00D-01 BMatC= 3.78D-05 BMatP= 1.30D-02
 IDIUse=3 WtCom= 9.95D-01 WtEn= 5.20D-03
 Coeff-Com:  0.704D-02-0.111D-01 0.817D-02-0.200D-01-0.228D+00 0.443D+00
 Coeff-Com:  0.801D+00
 Coeff-En:   0.000D+00 0.000D+00 0.000D+00 0.000D+00 0.000D+00 0.000D+00
 Coeff-En:   0.100D+01
 Coeff:      0.700D-02-0.110D-01 0.813D-02-0.199D-01-0.227D+00 0.441D+00
 Coeff:      0.802D+00
 Gap=     0.179 Goal=   None    Shift=    0.000
 RMSDP=1.84D-04 MaxDP=4.90D-03 DE=-1.25D-02 OVMax= 4.80D-03

 Cycle   8  Pass 1  IDiag  1:
 E= -588.059917796784     Delta-E=       -0.000079732734 Rises=F Damp=F
 DIIS: error= 3.52D-04 at cycle   8 NSaved=   8.
 NSaved= 8 IEnMin= 8 EnMin= -588.059917796784     IErMin= 8 ErrMin= 3.52D-04
 ErrMax= 3.52D-04  0.00D+00 EMaxC= 1.00D-01 BMatC= 1.31D-05 BMatP= 3.78D-05
 IDIUse=3 WtCom= 9.96D-01 WtEn= 3.52D-03
 Coeff-Com:  0.130D-01-0.179D-01 0.383D-03 0.128D-02 0.396D-01-0.960D-01
 Coeff-Com:  0.262D+00 0.797D+00
 Coeff-En:   0.000D+00 0.000D+00 0.000D+00 0.000D+00 0.000D+00 0.000D+00
 Coeff-En:   0.000D+00 0.100D+01
 Coeff:      0.129D-01-0.179D-01 0.382D-03 0.128D-02 0.395D-01-0.956D-01
 Coeff:      0.261D+00 0.798D+00
 Gap=     0.179 Goal=   None    Shift=    0.000
 RMSDP=8.23D-05 MaxDP=2.85D-03 DE=-7.97D-05 OVMax= 2.27D-03

 Cycle   9  Pass 1  IDiag  1:
 E= -588.059927255724     Delta-E=       -0.000009458940 Rises=F Damp=F
 DIIS: error= 3.42D-04 at cycle   9 NSaved=   9.
 NSaved= 9 IEnMin= 9 EnMin= -588.059927255724     IErMin= 9 ErrMin= 3.42D-04
 ErrMax= 3.42D-04  0.00D+00 EMaxC= 1.00D-01 BMatC= 1.39D-05 BMatP= 1.31D-05
 IDIUse=3 WtCom= 9.97D-01 WtEn= 3.42D-03
 Coeff-Com:  0.274D-02-0.377D-02-0.102D-02 0.229D-02 0.421D-01-0.634D-01
 Coeff-Com: -0.641D-01 0.173D+00 0.912D+00
 Coeff-En:   0.000D+00 0.000D+00 0.000D+00 0.000D+00 0.000D+00 0.000D+00
 Coeff-En:   0.000D+00 0.000D+00 0.100D+01
 Coeff:      0.273D-02-0.375D-02-0.102D-02 0.228D-02 0.419D-01-0.632D-01
 Coeff:     -0.639D-01 0.172D+00 0.913D+00
 Gap=     0.179 Goal=   None    Shift=    0.000
 RMSDP=3.13D-05 MaxDP=4.93D-04 DE=-9.46D-06 OVMax= 1.13D-03

 Cycle  10  Pass 1  IDiag  1:
 E= -588.059940707500     Delta-E=       -0.000013451776 Rises=F Damp=F
 DIIS: error= 6.47D-05 at cycle  10 NSaved=  10.
 NSaved=10 IEnMin=10 EnMin= -588.059940707500     IErMin=10 ErrMin= 6.47D-05
 ErrMax= 6.47D-05  0.00D+00 EMaxC= 1.00D-01 BMatC= 6.13D-07 BMatP= 1.31D-05
 IDIUse=1 WtCom= 1.00D+00 WtEn= 0.00D+00
 Coeff-Com: -0.136D-02 0.187D-02-0.319D-03-0.180D-03 0.281D-02 0.447D-02
 Coeff-Com: -0.544D-01-0.943D-01 0.112D+00 0.103D+01
 Coeff:     -0.136D-02 0.187D-02-0.319D-03-0.180D-03 0.281D-02 0.447D-02
 Coeff:     -0.544D-01-0.943D-01 0.112D+00 0.103D+01
 Gap=     0.179 Goal=   None    Shift=    0.000
 RMSDP=1.43D-05 MaxDP=2.72D-04 DE=-1.35D-05 OVMax= 5.51D-04

 Cycle  11  Pass 1  IDiag  1:
 E= -588.059941382073     Delta-E=       -0.000000674573 Rises=F Damp=F
 DIIS: error= 3.65D-05 at cycle  11 NSaved=  11.
 NSaved=11 IEnMin=11 EnMin= -588.059941382073     IErMin=11 ErrMin= 3.65D-05
 ErrMax= 3.65D-05  0.00D+00 EMaxC= 1.00D-01 BMatC= 1.62D-07 BMatP= 6.13D-07
 IDIUse=1 WtCom= 1.00D+00 WtEn= 0.00D+00
 Coeff-Com: -0.499D-04 0.812D-04 0.123D-03-0.124D-03-0.378D-02 0.286D-02
 Coeff-Com:  0.755D-02-0.380D-02-0.524D-01-0.281D-01 0.108D+01
 Coeff:     -0.499D-04 0.812D-04 0.123D-03-0.124D-03-0.378D-02 0.286D-02
 Coeff:      0.755D-02-0.380D-02-0.524D-01-0.281D-01 0.108D+01
 Gap=     0.179 Goal=   None    Shift=    0.000
 RMSDP=4.83D-06 MaxDP=8.13D-05 DE=-6.75D-07 OVMax= 1.23D-04

 Cycle  12  Pass 1  IDiag  1:
 E= -588.059941541536     Delta-E=       -0.000000159463 Rises=F Damp=F
 DIIS: error= 1.91D-06 at cycle  12 NSaved=  12.
 NSaved=12 IEnMin=12 EnMin= -588.059941541536     IErMin=12 ErrMin= 1.91D-06
 ErrMax= 1.91D-06  0.00D+00 EMaxC= 1.00D-01 BMatC= 5.50D-10 BMatP= 1.62D-07
 IDIUse=1 WtCom= 1.00D+00 WtEn= 0.00D+00
 Coeff-Com:  0.172D-04-0.251D-04-0.577D-07 0.394D-04 0.295D-03-0.201D-03
 Coeff-Com:  0.134D-02 0.454D-02 0.650D-02-0.583D-01-0.221D+00 0.127D+01
 Coeff:      0.172D-04-0.251D-04-0.577D-07 0.394D-04 0.295D-03-0.201D-03
 Coeff:      0.134D-02 0.454D-02 0.650D-02-0.583D-01-0.221D+00 0.127D+01
 Gap=     0.179 Goal=   None    Shift=    0.000
 RMSDP=8.01D-07 MaxDP=2.32D-05 DE=-1.59D-07 OVMax= 2.51D-05

 Cycle  13  Pass 1  IDiag  1:
 E= -588.059941543481     Delta-E=       -0.000000001945 Rises=F Damp=F
 DIIS: error= 5.42D-07 at cycle  13 NSaved=  13.
 NSaved=13 IEnMin=13 EnMin= -588.059941543481     IErMin=13 ErrMin= 5.42D-07
 ErrMax= 5.42D-07  0.00D+00 EMaxC= 1.00D-01 BMatC= 3.68D-11 BMatP= 5.50D-10
 IDIUse=1 WtCom= 1.00D+00 WtEn= 0.00D+00
 Coeff-Com:  0.100D-04-0.136D-04 0.145D-05-0.933D-05-0.423D-04 0.710D-04
 Coeff-Com: -0.605D-03-0.139D-02-0.118D-02 0.173D-01 0.468D-01-0.388D+00
 Coeff-Com:  0.133D+01
 Coeff:      0.100D-04-0.136D-04 0.145D-05-0.933D-05-0.423D-04 0.710D-04
 Coeff:     -0.605D-03-0.139D-02-0.118D-02 0.173D-01 0.468D-01-0.388D+00
 Coeff:      0.133D+01
 Gap=     0.179 Goal=   None    Shift=    0.000
 RMSDP=1.78D-07 MaxDP=3.14D-06 DE=-1.95D-09 OVMax= 4.38D-06

 Cycle  14  Pass 1  IDiag  1:
 E= -588.059941543545     Delta-E=       -0.000000000064 Rises=F Damp=F
 DIIS: error= 2.47D-07 at cycle  14 NSaved=  14.
 NSaved=14 IEnMin=14 EnMin= -588.059941543545     IErMin=14 ErrMin= 2.47D-07
 ErrMax= 2.47D-07  0.00D+00 EMaxC= 1.00D-01 BMatC= 6.84D-12 BMatP= 3.68D-11
 IDIUse=1 WtCom= 1.00D+00 WtEn= 0.00D+00
 Coeff-Com: -0.216D-06 0.307D-06-0.263D-06 0.127D-05 0.469D-05-0.114D-04
 Coeff-Com:  0.138D-03 0.267D-03-0.204D-03-0.296D-02-0.198D-02 0.519D-01
 Coeff-Com: -0.282D+00 0.124D+01
 Coeff:     -0.216D-06 0.307D-06-0.263D-06 0.127D-05 0.469D-05-0.114D-04
 Coeff:      0.138D-03 0.267D-03-0.204D-03-0.296D-02-0.198D-02 0.519D-01
 Coeff:     -0.282D+00 0.124D+01
 Gap=     0.179 Goal=   None    Shift=    0.000
 RMSDP=3.95D-08 MaxDP=7.94D-07 DE=-6.37D-11 OVMax= 1.09D-06

 Cycle  15  Pass 1  IDiag  1:
 E= -588.059941543552     Delta-E=       -0.000000000007 Rises=F Damp=F
 DIIS: error= 1.32D-08 at cycle  15 NSaved=  15.
 NSaved=15 IEnMin=15 EnMin= -588.059941543552     IErMin=15 ErrMin= 1.32D-08
 ErrMax= 1.32D-08  0.00D+00 EMaxC= 1.00D-01 BMatC= 2.12D-14 BMatP= 6.84D-12
 IDIUse=1 WtCom= 1.00D+00 WtEn= 0.00D+00
 Coeff-Com: -0.142D-06 0.198D-06 0.242D-07-0.432D-07 0.499D-07 0.110D-05
 Coeff-Com: -0.214D-04-0.362D-04 0.121D-03 0.357D-03-0.139D-02-0.191D-02
 Coeff-Com:  0.398D-01-0.417D+00 0.138D+01
 Coeff:     -0.142D-06 0.198D-06 0.242D-07-0.432D-07 0.499D-07 0.110D-05
 Coeff:     -0.214D-04-0.362D-04 0.121D-03 0.357D-03-0.139D-02-0.191D-02
 Coeff:      0.398D-01-0.417D+00 0.138D+01
 Gap=     0.179 Goal=   None    Shift=    0.000
 RMSDP=5.35D-09 MaxDP=1.45D-07 DE=-7.05D-12 OVMax= 2.60D-07

 SCF Done:  E(RwB97XD) =  -588.059941544     A.U. after   15 cycles
            NFock= 15  Conv=0.54D-08     -V/T= 3.6205
 KE= 2.244097432580D+02 PE=-2.041060066184D+03 EE= 8.425633882884D+02
 Leave Link  502 at Tue Feb 25 19:59:21 2025, MaxMem=  2097152000 cpu:               9.8 elap:               2.6
 (Enter /nvme/h/buildsets/eb_nepheli/software/Gaussian/16.C.01-AVX2/g16/l508.exe)
 QCSCF skips out because SCF is already converged.
 Leave Link  508 at Tue Feb 25 19:59:21 2025, MaxMem=  2097152000 cpu:               0.0 elap:               0.0
 (Enter /nvme/h/buildsets/eb_nepheli/software/Gaussian/16.C.01-AVX2/g16/l601.exe)
 Copying SCF densities to generalized density rwf, IOpCl= 0 IROHF=0.

 **********************************************************************

            Population analysis using the SCF Density.

 **********************************************************************

 Orbital symmetries:
       Occupied  (AG) (B2U) (B1U) (AG) (AG) (B2U) (B3U) (B1G) (B1U)
                 (B3G) (AG) (B1U) (B2U) (B3G) (B2G) (B3U) (AG)
                 (B1U) (B3U) (B2U) (AG) (B2G) (AU) (B3G) (B1G)
                 (B2U) (AG) (B1U) (B1G) (B3U) (B3G) (AG) (AU) (B2G)
                 (B1U) (B2U) (AG) (B1U)
       Virtual   (B2U) (AG) (B3U) (B3G) (AG) (B1U) (B2G) (B1G)
                 (B2U) (B3U) (B2U) (B1U) (AG) (AG) (B3G) (B1U)
                 (B2U) (AG) (AG) (B1U) (B3U) (B3G) (B2G) (B2U)
                 (B1G) (B3U) (AG) (AU) (B3G) (B2U) (B1U) (B2G)
                 (B3U) (AG) (B1G) (B1U) (B2U) (B3U) (AG) (B1U)
                 (AU) (B1G) (B3G) (B2G) (AG) (AG) (B3G) (B2U) (B2U)
                 (B1U) (AG) (B1U) (B2U) (AG) (AG) (B3U) (AU) (B1U)
                 (B2G) (B1G) (B2U) (B3G) (B1G) (B3U) (B3G) (B1U)
                 (AG) (B2U) (B1U) (B2G) (B3U) (B1G) (B3G) (B3U)
                 (AG) (AU) (B2G) (B2U) (B1U) (B3G) (AG) (B2U) (AG)
                 (B1U) (B2U) (AG)
 The electronic state is 1-AG.
 Alpha  occ. eigenvalues --   -3.85064  -3.85026  -3.82088  -3.82088  -2.43746
 Alpha  occ. eigenvalues --   -2.43283  -2.43204  -2.43166  -2.43151  -2.43108
 Alpha  occ. eigenvalues --   -2.40402  -2.40398  -2.40218  -2.40215  -2.40032
 Alpha  occ. eigenvalues --   -2.40031  -0.46308  -0.46213  -0.44662  -0.44049
 Alpha  occ. eigenvalues --   -0.43834  -0.43446  -0.42371  -0.41986  -0.40988
 Alpha  occ. eigenvalues --   -0.40826  -0.39756  -0.39228  -0.39202  -0.39200
 Alpha  occ. eigenvalues --   -0.38834  -0.38705  -0.38674  -0.38471  -0.38141
 Alpha  occ. eigenvalues --   -0.37185  -0.32385  -0.22680
 Alpha virt. eigenvalues --   -0.04814  -0.01453   0.00817   0.03513   0.04474
 Alpha virt. eigenvalues --    0.06052   0.06358   0.08971   0.10738   0.11882
 Alpha virt. eigenvalues --    0.13268   0.14850   0.15298   0.16698   0.17356
 Alpha virt. eigenvalues --    0.20195   0.22501   0.24198   0.29739   0.31653
 Alpha virt. eigenvalues --    0.33718   0.33799   0.38929   0.39553   0.40661
 Alpha virt. eigenvalues --    0.44173   0.44581   0.48001   0.48463   0.49535
 Alpha virt. eigenvalues --    0.50729   0.50835   0.52414   0.56410   0.56823
 Alpha virt. eigenvalues --    0.58192   0.65394   0.67392   0.68868   0.69637
 Alpha virt. eigenvalues --    0.70824   0.72220   0.73314   0.76551   0.77449
 Alpha virt. eigenvalues --    0.85078   0.88980   0.89289   0.93055   1.00636
 Alpha virt. eigenvalues --    2.10783   2.17753   2.22836   2.26258   2.66747
 Alpha virt. eigenvalues --    2.66782   2.66949   2.67201   2.67268   2.67288
 Alpha virt. eigenvalues --    2.67293   2.67297   2.67376   2.67579   2.67739
 Alpha virt. eigenvalues --    2.67986   2.69383   2.70047   2.70113   2.70142
 Alpha virt. eigenvalues --    2.70184   2.70208   2.70275   2.70280   2.70445
 Alpha virt. eigenvalues --    2.70489   2.70553   2.71104   2.71433   2.72117
 Alpha virt. eigenvalues --    2.73037   2.73447  54.28316  54.33345  54.36956
 Alpha virt. eigenvalues --   54.40408
          Condensed to atoms (all electrons):
               1          2          3          4
     1  Ag  18.394966   0.182068   0.120431   0.182068
     2  Ag   0.182068  18.754310   0.182068   0.002022
     3  Ag   0.120431   0.182068  18.394966   0.182068
     4  Ag   0.182068   0.002022   0.182068  18.754310
 Mulliken charges:
               1
     1  Ag   0.120467
     2  Ag  -0.120467
     3  Ag   0.120467
     4  Ag  -0.120467
 Sum of Mulliken charges =   0.00000
 Mulliken charges with hydrogens summed into heavy atoms:
               1
     1  Ag   0.120467
     2  Ag  -0.120467
     3  Ag   0.120467
     4  Ag  -0.120467
 Electronic spatial extent (au):  <R**2>=           1223.3216
 Charge=              0.0000 electrons
 Dipole moment (field-independent basis, Debye):
    X=             -0.0000    Y=              0.0000    Z=             -0.0000  Tot=              0.0000
 Quadrupole moment (field-independent basis, Debye-Ang):
   XX=            -80.5058   YY=            -71.4036   ZZ=            -79.7651
   XY=              0.0000   XZ=             -0.0000   YZ=             -0.0000
 Traceless Quadrupole moment (field-independent basis, Debye-Ang):
   XX=             -3.2810   YY=              5.8212   ZZ=             -2.5403
   XY=              0.0000   XZ=             -0.0000   YZ=             -0.0000
 Octapole moment (field-independent basis, Debye-Ang**2):
  XXX=             -0.0000  YYY=              0.0000  ZZZ=              0.0000  XYY=             -0.0000
  XXY=              0.0000  XXZ=              0.0000  XZZ=             -0.0000  YZZ=              0.0000
  YYZ=             -0.0000  XYZ=              0.0000
 Hexadecapole moment (field-independent basis, Debye-Ang**3):
 XXXX=           -107.5442 YYYY=           -444.8754 ZZZZ=          -1463.4088 XXXY=             -0.0000
 XXXZ=              0.0000 YYYX=             -0.0000 YYYZ=             -0.0000 ZZZX=              0.0000
 ZZZY=             -0.0000 XXYY=            -96.3544 XXZZ=           -282.9449 YYZZ=           -351.5489
 XXYZ=             -0.0000 YYXZ=              0.0000 ZZXY=             -0.0000
 N-N= 3.860269930944D+02 E-N=-2.041060064556D+03  KE= 2.244097432580D+02
 Symmetry AG   KE= 4.777426426147D+01
 Symmetry B1G  KE= 1.967658889424D+01
 Symmetry B2G  KE= 1.931702569597D+01
 Symmetry B3G  KE= 2.549031006277D+01
 Symmetry AU   KE= 1.356739518316D+01
 Symmetry B1U  KE= 3.704741184446D+01
 Symmetry B2U  KE= 3.655649460641D+01
 Symmetry B3U  KE= 2.498025270948D+01
 No NMR shielding tensors so no spin-rotation constants.
 Leave Link  601 at Tue Feb 25 19:59:21 2025, MaxMem=  2097152000 cpu:               0.4 elap:               0.1
 (Enter /nvme/h/buildsets/eb_nepheli/software/Gaussian/16.C.01-AVX2/g16/l701.exe)
 ... and contract with generalized density number  0.
 Compute integral first derivatives.
 R6Disp: Adding Grimme-D2 dispersion energy 1st derivatives to the gradient.
   8 Symmetry operations used in ECPInt.
 ECPInt:  NShTT=     990 NPrTT=    2986 LenC2=     983 LenP2D=    2751.
 LDataN:  DoStor=T MaxTD1= 8 Len=  415
 Leave Link  701 at Tue Feb 25 19:59:22 2025, MaxMem=  2097152000 cpu:               2.7 elap:               0.7
 (Enter /nvme/h/buildsets/eb_nepheli/software/Gaussian/16.C.01-AVX2/g16/l702.exe)
 L702 exits ... SP integral derivatives will be done elsewhere.
 Leave Link  702 at Tue Feb 25 19:59:22 2025, MaxMem=  2097152000 cpu:               0.0 elap:               0.0
 (Enter /nvme/h/buildsets/eb_nepheli/software/Gaussian/16.C.01-AVX2/g16/l703.exe)
 Integral derivatives from FoFJK, PRISM(SPDF).
 Compute integral first derivatives, UseDBF=F ICtDFT=           0.
 Calling FoFJK, ICntrl=      2127 FMM=F ISym2X=1 I1Cent= 0 IOpClX= 0 NMat=1 NMatS=1 NMatT=0.
 FoFJK:  IHMeth= 1 ICntrl=    2127 DoSepK=T KAlg= 0 I1Cent=           0 FoldK=F
 IRaf=         1 NMat=       1 IRICut=       1 DoRegI=T DoRafI=F ISym2E= 1 IDoP0=0 IntGTp=1.
 FoFCou: FMM=F IPFlag=           0 FMFlag=      100000 FMFlg1=         800
         NFxFlg=           0 DoJE=F BraDBF=F KetDBF=F FulRan=T
         wScrn=  0.000000 ICntrl=      2527 IOpCl=  0 I1Cent=           0 NGrid=           0
         NMat0=    1 NMatS0=      1 NMatT0=    0 NMatD0=    1 NMtDS0=    0 NMtDT0=    0
 Petite list used in FoFCou.
 Defaulting to unpruned grid for atomic number  47.
 Defaulting to unpruned grid for atomic number  47.
 Defaulting to unpruned grid for atomic number  47.
 Defaulting to unpruned grid for atomic number  47.
 Leave Link  703 at Tue Feb 25 19:59:24 2025, MaxMem=  2097152000 cpu:               6.1 elap:               1.6
 (Enter /nvme/h/buildsets/eb_nepheli/software/Gaussian/16.C.01-AVX2/g16/l716.exe)
 Dipole        =-1.28723097D-16 2.22044605D-15 8.88178420D-16
 ***** Axes restored to original set *****
 -------------------------------------------------------------------
 Center     Atomic                   Forces (Hartrees/Bohr)
 Number     Number              X              Y              Z
 -------------------------------------------------------------------
      1       47           0.000000000    0.000155001    0.000000000
      2       47          -0.000000000   -0.000000000   -0.000007563
      3       47           0.000000000   -0.000155001    0.000000000
      4       47          -0.000000000   -0.000000000    0.000007563
 -------------------------------------------------------------------
 Cartesian Forces:  Max     0.000155001 RMS     0.000063354
 Z-matrix is all fixed cartesians, so copy forces.
 Force constants in Cartesian coordinates: 
                1             2             3             4             5 
      1  0.177047D-01
      2  0.000000D+00  0.186231D+00
      3  0.000000D+00  0.000000D+00  0.142141D+00
      4 -0.394642D-02  0.000000D+00  0.000000D+00  0.394642D-02
      5  0.000000D+00 -0.371780D-01  0.430837D-01  0.000000D+00  0.603296D-01
      6  0.000000D+00  0.111893D-01 -0.619642D-01  0.000000D+00  0.000000D+00
      7 -0.981191D-02  0.000000D+00  0.000000D+00 -0.394642D-02  0.000000D+00
      8  0.000000D+00 -0.111875D+00  0.000000D+00  0.000000D+00 -0.371780D-01
      9  0.000000D+00  0.000000D+00 -0.182121D-01  0.000000D+00 -0.430837D-01
     10 -0.394642D-02  0.000000D+00  0.000000D+00  0.394642D-02  0.000000D+00
     11  0.000000D+00 -0.371780D-01 -0.430837D-01  0.000000D+00  0.140264D-01
     12  0.000000D+00 -0.111893D-01 -0.619642D-01  0.000000D+00  0.000000D+00
                6             7             8             9            10 
      6  0.127979D+00
      7  0.000000D+00  0.177047D-01
      8 -0.111893D-01  0.000000D+00  0.186231D+00
      9 -0.619642D-01  0.000000D+00  0.000000D+00  0.142141D+00
     10  0.000000D+00 -0.394642D-02  0.000000D+00  0.000000D+00  0.394642D-02
     11  0.000000D+00  0.000000D+00 -0.371780D-01  0.430837D-01  0.000000D+00
     12 -0.405025D-02  0.000000D+00  0.111893D-01 -0.619642D-01  0.000000D+00
               11            12 
     11  0.603296D-01
     12  0.000000D+00  0.127979D+00
 Leave Link  716 at Tue Feb 25 19:59:24 2025, MaxMem=  2097152000 cpu:               0.1 elap:               0.0
 (Enter /nvme/h/buildsets/eb_nepheli/software/Gaussian/16.C.01-AVX2/g16/l103.exe)

 GradGradGradGradGradGradGradGradGradGradGradGradGradGradGradGradGradGrad
 Berny optimization.
 Search for a local minimum.
 Step number   1 out of a maximum of    2
 All quantities printed in internal units (Hartrees-Bohrs-Radians)
 Second derivative matrix not updated -- first step.
 The second derivative matrix:
                          X1        Y1        Z1        X2        Y2
           X1           0.01770
           Y1          -0.00000   0.18623
           Z1          -0.00000   0.00000   0.14214
           X2          -0.00395  -0.00000   0.00000   0.00395
           Y2          -0.00000  -0.03718   0.04308   0.00000   0.06033
           Z2           0.00000   0.01119  -0.06196  -0.00000   0.00000
           X3          -0.00981  -0.00000   0.00000  -0.00395   0.00000
           Y3          -0.00000  -0.11188  -0.00000  -0.00000  -0.03718
           Z3           0.00000   0.00000  -0.01821   0.00000  -0.04308
           X4          -0.00395   0.00000   0.00000   0.00395   0.00000
           Y4           0.00000  -0.03718  -0.04308   0.00000   0.01403
           Z4           0.00000  -0.01119  -0.06196   0.00000  -0.00000
                          Z2        X3        Y3        Z3        X4
           Z2           0.12798
           X3           0.00000   0.01770
           Y3          -0.01119   0.00000   0.18623
           Z3          -0.06196  -0.00000  -0.00000   0.14214
           X4           0.00000  -0.00395  -0.00000   0.00000   0.00395
           Y4           0.00000  -0.00000  -0.03718   0.04308   0.00000
           Z4          -0.00405   0.00000   0.01119  -0.06196  -0.00000
                          Y4        Z4
           Y4           0.06033
           Z4          -0.00000   0.12798
 ITU=  0
     Eigenvalues ---    0.01579   0.12907   0.14871   0.20666   0.24786
     Eigenvalues ---    0.30107
 Angle between quadratic step and forces=  12.71 degrees.
 ClnCor:  largest displacement from symmetrization is 4.28D-13 for atom     3.
 Linear search not attempted -- first point.
 ClnCor:  largest displacement from symmetrization is 1.28D-29 for atom     4.
 B after Tr=     0.000000    0.000000    0.000000
         Rot=    1.000000   -0.000000   -0.000000    0.000000 Ang=   0.00 deg.
 Variable       Old X    -DE/DX   Delta X   Delta X   Delta X     New X
                                 (Linear)    (Quad)   (Total)
    X1        0.00000   0.00000   0.00000   0.00000   0.00000   0.00000
    Y1        2.48947   0.00016   0.00000   0.00053   0.00053   2.49000
    Z1        0.00000   0.00000   0.00000  -0.00000   0.00000   0.00000
    X2       -0.00000  -0.00000   0.00000   0.00000   0.00000  -0.00000
    Y2       -0.00000  -0.00000   0.00000   0.00000  -0.00000  -0.00000
    Z2        4.63276  -0.00001   0.00000  -0.00015  -0.00015   4.63261
    X3       -0.00000   0.00000   0.00000  -0.00000  -0.00000  -0.00000
    Y3       -2.48947  -0.00016   0.00000  -0.00053  -0.00053  -2.49000
    Z3        0.00000   0.00000   0.00000  -0.00000  -0.00000  -0.00000
    X4        0.00000  -0.00000   0.00000  -0.00000  -0.00000   0.00000
    Y4       -0.00000  -0.00000   0.00000   0.00000   0.00000   0.00000
    Z4       -4.63276   0.00001   0.00000   0.00015   0.00015  -4.63261
         Item               Value     Threshold  Converged?
 Maximum Force            0.000155     0.000450     YES
 RMS     Force            0.000063     0.000300     YES
 Maximum Displacement     0.000531     0.001800     YES
 RMS     Displacement     0.000225     0.001200     YES
 Predicted change in Energy=-8.342031D-08
 Optimization completed.
    -- Stationary point found.
 GradGradGradGradGradGradGradGradGradGradGradGradGradGradGradGradGradGrad

 Leave Link  103 at Tue Feb 25 19:59:25 2025, MaxMem=  2097152000 cpu:               0.1 elap:               0.1
 (Enter /nvme/h/buildsets/eb_nepheli/software/Gaussian/16.C.01-AVX2/g16/l9999.exe)
 Unable to Open any file for archive entry.
 1\1\GINC-NE08\Force\RwB97XD\def2SVP\Ag4\NPATSALIDIS\25-Feb-2025\0\\#p 
 wb97xd/def2SVP scf(xqc) scfcyc=999 force\\Template file\\0,1\Ag,0.,1.3
 17371,0.\Ag,0.,0.,2.451551\Ag,0.,-1.317371,0.\Ag,0.,0.,-2.451551\\Vers
 ion=ES64L-G16RevC.01\State=1-AG\HF=-588.0599415\RMSD=5.353e-09\RMSF=6.
 335e-05\Dipole=0.,0.,0.\Quadrupole=-2.4393069,4.3279422,-1.8886353,0.,
 0.,0.\PG=D02H [C2'(Ag1.Ag1),C2"(Ag1.Ag1)]\\@
 The archive entry for this job was punched.


 MYSTERY IS THE WISDOM OF BLOCKHEADS... HORACE WALPOLE 
 Job cpu time:       0 days  0 hours  0 minutes 23.4 seconds.
 Elapsed time:       0 days  0 hours  0 minutes  6.1 seconds.
 File lengths (MBytes):  RWF=     15 Int=      0 D2E=      0 Chk=      2 Scr=      1
 Normal termination of Gaussian 16 at Tue Feb 25 19:59:25 2025.
