 Entering Gaussian System, Link 0=g16
 Initial command:
 /nvme/h/buildsets/eb_nepheli/software/Gaussian/16.C.01-AVX2/g16/l1.exe "/onyx/data/simea/nikolas/postDoc/Active-Learning-Package/Ag4SO2/init_data/Gau-81771.inp" -scrdir="/onyx/data/simea/nikolas/postDoc/Active-Learning-Package/Ag4SO2/init_data/"
 Entering Link 1 = /nvme/h/buildsets/eb_nepheli/software/Gaussian/16.C.01-AVX2/g16/l1.exe PID=     81772.
  
 Copyright (c) 1988-2019, Gaussian, Inc.  All Rights Reserved.
  
 This is part of the Gaussian(R) 16 program.  It is based on
 the Gaussian(R) 09 system (copyright 2009, Gaussian, Inc.),
 the Gaussian(R) 03 system (copyright 2003, Gaussian, Inc.),
 the Gaussian(R) 98 system (copyright 1998, Gaussian, Inc.),
 the Gaussian(R) 94 system (copyright 1995, Gaussian, Inc.),
 the Gaussian 92(TM) system (copyright 1992, Gaussian, Inc.),
 the Gaussian 90(TM) system (copyright 1990, Gaussian, Inc.),
 the Gaussian 88(TM) system (copyright 1988, Gaussian, Inc.),
 the Gaussian 86(TM) system (copyright 1986, Carnegie Mellon
 University), and the Gaussian 82(TM) system (copyright 1983,
 Carnegie Mellon University). Gaussian is a federally registered
 trademark of Gaussian, Inc.
  
 This software contains proprietary and confidential information,
 including trade secrets, belonging to Gaussian, Inc.
  
 This software is provided under written license and may be
 used, copied, transmitted, or stored only in accord with that
 written license.
  
 The following legend is applicable only to US Government
 contracts under FAR:
  
                    RESTRICTED RIGHTS LEGEND
  
 Use, reproduction and disclosure by the US Government is
 subject to restrictions as set forth in subparagraphs (a)
 and (c) of the Commercial Computer Software - Restricted
 Rights clause in FAR 52.227-19.
  
 Gaussian, Inc.
 340 Quinnipiac St., Bldg. 40, Wallingford CT 06492
  
  
 ---------------------------------------------------------------
 Warning -- This program may not be used in any manner that
 competes with the business of Gaussian, Inc. or will provide
 assistance to any competitor of Gaussian, Inc.  The licensee
 of this program is prohibited from giving any competitor of
 Gaussian, Inc. access to this program.  By using this program,
 the user acknowledges that Gaussian, Inc. is engaged in the
 business of creating and licensing software in the field of
 computational chemistry and represents and warrants to the
 licensee that it is not a competitor of Gaussian, Inc. and that
 it will not use this program in any manner prohibited above.
 ---------------------------------------------------------------
  

 Cite this work as:
 Gaussian 16, Revision C.01,
 M. J. Frisch, G. W. Trucks, H. B. Schlegel, G. E. Scuseria, 
 M. A. Robb, J. R. Cheeseman, G. Scalmani, V. Barone, 
 G. A. Petersson, H. Nakatsuji, X. Li, M. Caricato, A. V. Marenich, 
 J. Bloino, B. G. Janesko, R. Gomperts, B. Mennucci, H. P. Hratchian, 
 J. V. Ortiz, A. F. Izmaylov, J. L. Sonnenberg, D. Williams-Young, 
 F. Ding, F. Lipparini, F. Egidi, J. Goings, B. Peng, A. Petrone, 
 T. Henderson, D. Ranasinghe, V. G. Zakrzewski, J. Gao, N. Rega, 
 G. Zheng, W. Liang, M. Hada, M. Ehara, K. Toyota, R. Fukuda, 
 J. Hasegawa, M. Ishida, T. Nakajima, Y. Honda, O. Kitao, H. Nakai, 
 T. Vreven, K. Throssell, J. A. Montgomery, Jr., J. E. Peralta, 
 F. Ogliaro, M. J. Bearpark, J. J. Heyd, E. N. Brothers, K. N. Kudin, 
 V. N. Staroverov, T. A. Keith, R. Kobayashi, J. Normand, 
 K. Raghavachari, A. P. Rendell, J. C. Burant, S. S. Iyengar, 
 J. Tomasi, M. Cossi, J. M. Millam, M. Klene, C. Adamo, R. Cammi, 
 J. W. Ochterski, R. L. Martin, K. Morokuma, O. Farkas, 
 J. B. Foresman, and D. J. Fox, Gaussian, Inc., Wallingford CT, 2019.
 
 ******************************************
 Gaussian 16:  ES64L-G16RevC.01  3-Jul-2019
                25-Feb-2025 
 ******************************************
 %nprocshared=4
 Will use up to    4 processors via shared memory.
 %mem=8000MB
 -------------------------------------------
 #p wb97xd/def2SVP scf(xqc) scfcyc=999 force
 -------------------------------------------
 1/10=7,30=1,38=1/1,3;
 2/12=2,17=6,18=5,40=1/2;
 3/5=43,7=101,11=2,25=1,30=1,71=1,74=-58/1,2,3;
 4//1;
 5/5=2,7=999,8=3,13=1,38=5/2,8;
 6/7=2,8=2,9=2,10=2,28=1/1;
 7/29=1/1,2,3,16;
 1/10=7,30=1/3;
 99//99;
 Leave Link    1 at Tue Feb 25 23:55:17 2025, MaxMem=  1048576000 cpu:               0.4 elap:               0.1
 (Enter /nvme/h/buildsets/eb_nepheli/software/Gaussian/16.C.01-AVX2/g16/l101.exe)
 -------------
 Template file
 -------------
 Symbolic Z-matrix:
 Charge =  0 Multiplicity = 1
 Ag                   -0.0362   -0.09699   0.04651 
 Ag                    0.1918    0.11287   2.8444 
 Ag                    2.61451   0.002     1.34176 
 Ag                    0.80449  -2.31876   1.56437 
 S                     2.63971  -1.70676  -1.17742 
 O                     1.90064  -0.28771  -1.00957 
 O                     2.64366  -2.2603    0.33281 
 
 ITRead=  0  0  0  0  0  0  0
 MicOpt= -1 -1 -1 -1 -1 -1 -1
 NAtoms=      7 NQM=        7 NQMF=       0 NMMI=      0 NMMIF=      0
                NMic=       0 NMicF=      0.
                    Isotopes and Nuclear Properties:
 (Nuclear quadrupole moments (NQMom) in fm**2, nuclear magnetic moments (NMagM)
  in nuclear magnetons)

  Atom         1           2           3           4           5           6           7
 IAtWgt=         107         107         107         107          32          16          16
 AtmWgt= 106.9050900 106.9050900 106.9050900 106.9050900  31.9720718  15.9949146  15.9949146
 NucSpn=           1           1           1           1           0           0           0
 AtZEff=  -0.0000000  -0.0000000  -0.0000000  -0.0000000  -0.0000000  -0.0000000  -0.0000000
 NQMom=    0.0000000   0.0000000   0.0000000   0.0000000   0.0000000   0.0000000   0.0000000
 NMagM=   -0.1135700  -0.1135700  -0.1135700  -0.1135700   0.0000000   0.0000000   0.0000000
 AtZNuc=  47.0000000  47.0000000  47.0000000  47.0000000  16.0000000   8.0000000   8.0000000
 Leave Link  101 at Tue Feb 25 23:55:18 2025, MaxMem=  1048576000 cpu:               0.2 elap:               0.1
 (Enter /nvme/h/buildsets/eb_nepheli/software/Gaussian/16.C.01-AVX2/g16/l103.exe)

 GradGradGradGradGradGradGradGradGradGradGradGradGradGradGradGradGradGrad
 Berny optimization.
 Initialization pass.
 Trust Radius=3.00D-01 FncErr=1.00D-07 GrdErr=1.00D-07 EigMax=2.50D+02 EigMin=1.00D-04
 Number of steps in this run=      2 maximum allowed number of steps=      2.
 GradGradGradGradGradGradGradGradGradGradGradGradGradGradGradGradGradGrad

 Leave Link  103 at Tue Feb 25 23:55:18 2025, MaxMem=  1048576000 cpu:               0.0 elap:               0.0
 (Enter /nvme/h/buildsets/eb_nepheli/software/Gaussian/16.C.01-AVX2/g16/l202.exe)
                          Input orientation:                          
 ---------------------------------------------------------------------
 Center     Atomic      Atomic             Coordinates (Angstroms)
 Number     Number       Type             X           Y           Z
 ---------------------------------------------------------------------
      1         47           0       -0.036199   -0.096985    0.046511
      2         47           0        0.191796    0.112867    2.844397
      3         47           0        2.614507    0.001995    1.341759
      4         47           0        0.804485   -2.318762    1.564370
      5         16           0        2.639705   -1.706761   -1.177425
      6          8           0        1.900638   -0.287714   -1.009570
      7          8           0        2.643662   -2.260302    0.332805
 ---------------------------------------------------------------------
                    Distance matrix (angstroms):
                    1          2          3          4          5
     1  Ag   0.000000
     2  Ag   2.814993   0.000000
     3  Ag   2.951899   2.853023   0.000000
     4  Ag   2.819031   2.815435   2.951550   0.000000
     5  S    3.354081   5.047609   3.044137   3.355595   0.000000
     6  O    2.214277   4.234816   2.474326   3.457148   1.608754
     7  O    3.455946   4.236941   2.477262   2.214214   1.608483
                    6          7
     6  O    0.000000
     7  O    2.499032   0.000000
 Stoichiometry    Ag4O2S
 Framework group  C1[X(Ag4O2S)]
 Deg. of freedom    15
 Full point group                 C1      NOp   1
 Largest Abelian subgroup         C1      NOp   1
 Largest concise Abelian subgroup C1      NOp   1
                         Standard orientation:                         
 ---------------------------------------------------------------------
 Center     Atomic      Atomic             Coordinates (Angstroms)
 Number     Number       Type             X           Y           Z
 ---------------------------------------------------------------------
      1         47           0        0.003228   -1.392755   -0.971036
      2         47           0        2.095478   -0.005829    0.302977
      3         47           0       -0.441535   -0.027133    1.607911
      4         47           0        0.003703    1.425856   -0.922352
      5         16           0       -2.932503    0.001338   -0.141671
      6          8           0       -1.945447   -1.251110    0.070896
      7          8           0       -1.947189    1.247621    0.109634
 ---------------------------------------------------------------------
 Rotational constants (GHZ):           0.5299715           0.3715518           0.3704248
 Leave Link  202 at Tue Feb 25 23:55:18 2025, MaxMem=  1048576000 cpu:               0.0 elap:               0.0
 (Enter /nvme/h/buildsets/eb_nepheli/software/Gaussian/16.C.01-AVX2/g16/l301.exe)
 Standard basis: def2SVP (5D, 7F)
 Ernie: Thresh=  0.10000D-02 Tol=  0.10000D-05 Strict=F.
 There are   193 symmetry adapted cartesian basis functions of A   symmetry.
 There are   170 symmetry adapted basis functions of A   symmetry.
   170 basis functions,   347 primitive gaussians,   193 cartesian basis functions
    54 alpha electrons       54 beta electrons
       nuclear repulsion energy       900.4108019411 Hartrees.
 IExCor= 4639 DFT=T Ex+Corr=wB97XD ExCW=0 ScaHFX=  1.000000
 ScaDFX=  1.000000  1.000000  1.000000  1.000000 ScalE2=  1.000000  1.000000
 IRadAn=      5 IRanWt=     -1 IRanGd=            0 ICorTp=0 IEmpDi=121
 HFx  wShort=  0.000000 wLong=  0.200000 cFull=  0.222036 cShort=  0.000000 cLong=  0.777964
 DFx  wShort=  0.000000 wLong=  0.200000 cFull=  0.000000 cShort=  0.000000 cLong=  1.000000
 NAtoms=    7 NActive=    7 NUniq=    7 SFac= 1.00D+00 NAtFMM=   60 NAOKFM=F Big=F
 Integral buffers will be    131072 words long.
 Raffenetti 2 integral format.
 Two-electron integral symmetry is turned on.
 R6Disp:  Grimme-D2 Dispersion energy=       -0.0067310155 Hartrees.
 Nuclear repulsion after empirical dispersion term =      900.4040709255 Hartrees.
 Leave Link  301 at Tue Feb 25 23:55:18 2025, MaxMem=  1048576000 cpu:               0.1 elap:               0.0
 (Enter /nvme/h/buildsets/eb_nepheli/software/Gaussian/16.C.01-AVX2/g16/l302.exe)
 NPDir=0 NMtPBC=     1 NCelOv=     1 NCel=       1 NClECP=     1 NCelD=      1
         NCelK=      1 NCelE2=     1 NClLst=     1 CellRange=     0.0.
 One-electron integrals computed using PRISM.
 One-electron integral symmetry used in STVInt
   1 Symmetry operations used in ECPInt.
 ECPInt:  NShTT=    2080 NPrTT=    7130 LenC2=    2060 LenP2D=    5974.
 LDataN:  DoStor=T MaxTD1= 7 Len=  274
 NBasis=   170 RedAO= T EigKep=  2.06D-03  NBF=   170
 NBsUse=   170 1.00D-06 EigRej= -1.00D+00 NBFU=   170
 Precomputing XC quadrature grid using
 IXCGrd= 4 IRadAn=           5 IRanWt=          -1 IRanGd=           0 AccXCQ= 0.00D+00.
 Defaulting to unpruned grid for atomic number  47.
 Defaulting to unpruned grid for atomic number  47.
 Generated NRdTot=       0 NPtTot=           0 NUsed=           0 NTot=          32
 NSgBfM=   192   192   192   192   192 MxSgAt=     7 MxSgA2=     7.
 Leave Link  302 at Tue Feb 25 23:55:19 2025, MaxMem=  1048576000 cpu:               2.1 elap:               0.5
 (Enter /nvme/h/buildsets/eb_nepheli/software/Gaussian/16.C.01-AVX2/g16/l303.exe)
 DipDrv:  MaxL=1.
 Leave Link  303 at Tue Feb 25 23:55:19 2025, MaxMem=  1048576000 cpu:               0.1 elap:               0.0
 (Enter /nvme/h/buildsets/eb_nepheli/software/Gaussian/16.C.01-AVX2/g16/l401.exe)
 ExpMin= 3.75D-02 ExpMax= 9.18D+03 ExpMxC= 1.38D+03 IAcc=3 IRadAn=         5 AccDes= 0.00D+00
 Harris functional with IExCor= 4639 and IRadAn=       5 diagonalized for initial guess.
 HarFok:  IExCor= 4639 AccDes= 0.00D+00 IRadAn=         5 IDoV= 1 UseB2=F ITyADJ=14
 ICtDFT=  3500011 ScaDFX=  1.000000  1.000000  1.000000  1.000000
 Defaulting to unpruned grid for atomic number  47.
 FoFCou: FMM=F IPFlag=           0 FMFlag=      100000 FMFlg1=           0
         NFxFlg=           0 DoJE=T BraDBF=F KetDBF=T FulRan=T
         wScrn=  0.000000 ICntrl=       500 IOpCl=  0 I1Cent=   200000004 NGrid=           0
         NMat0=    1 NMatS0=      1 NMatT0=    0 NMatD0=    1 NMtDS0=    0 NMtDT0=    0
 Petite list used in FoFCou.
 Harris En= -1108.72772560860    
 JPrj=0 DoOrth=F DoCkMO=F.
 Leave Link  401 at Tue Feb 25 23:55:20 2025, MaxMem=  1048576000 cpu:               3.1 elap:               0.8
 (Enter /nvme/h/buildsets/eb_nepheli/software/Gaussian/16.C.01-AVX2/g16/l502.exe)
 Keep R1 ints in memory in canonical form, NReq=217869852.
 FoFCou: FMM=F IPFlag=           0 FMFlag=           0 FMFlg1=           0
         NFxFlg=           0 DoJE=F BraDBF=F KetDBF=F FulRan=T
         wScrn=  0.000000 ICntrl=       600 IOpCl=  0 I1Cent=           0 NGrid=           0
         NMat0=    1 NMatS0=  14535 NMatT0=    0 NMatD0=    1 NMtDS0=    0 NMtDT0=    0
 Symmetry not used in FoFCou.
 Two-electron integral symmetry not used.
 Closed shell SCF:
 Using DIIS extrapolation, IDIIS=  1040.
 NGot=  1048576000 LenX=   837217648 LenY=   837179958
 Requested convergence on RMS density matrix=1.00D-08 within 128 cycles.
 Requested convergence on MAX density matrix=1.00D-06.
 Requested convergence on             energy=1.00D-06.
 No special actions if energy rises.

 Cycle   1  Pass 1  IDiag  1:
 Defaulting to unpruned grid for atomic number  47.
 Defaulting to unpruned grid for atomic number  47.
 Defaulting to unpruned grid for atomic number  47.
 Defaulting to unpruned grid for atomic number  47.
 E= -1129.09072501475    
 DIIS: error= 1.81D-01 at cycle   1 NSaved=   1.
 NSaved= 1 IEnMin= 1 EnMin= -1129.09072501475     IErMin= 1 ErrMin= 1.81D-01
 ErrMax= 1.81D-01  0.00D+00 EMaxC= 1.00D-01 BMatC= 7.95D+00 BMatP= 7.95D+00
 IDIUse=3 WtCom= 0.00D+00 WtEn= 1.00D+00
 Coeff-Com:  0.100D+01
 Coeff-En:   0.100D+01
 Coeff:      0.100D+01
 Gap=     0.268 Goal=   None    Shift=    0.000
 GapD=    0.268 DampG=1.000 DampE=0.125 DampFc=0.1250 IDamp=-1.
 Damping current iteration by 1.25D-01
 RMSDP=4.20D-02 MaxDP=9.56D-01              OVMax= 8.31D-01

 Cycle   2  Pass 1  IDiag  1:
 E= -1130.73679756386     Delta-E=       -1.646072549106 Rises=F Damp=T
 DIIS: error= 1.34D-01 at cycle   2 NSaved=   2.
 NSaved= 2 IEnMin= 2 EnMin= -1130.73679756386     IErMin= 2 ErrMin= 1.34D-01
 ErrMax= 1.34D-01  0.00D+00 EMaxC= 1.00D-01 BMatC= 4.27D+00 BMatP= 7.95D+00
 IDIUse=3 WtCom= 0.00D+00 WtEn= 1.00D+00
 Coeff-Com: -0.252D+01 0.352D+01
 Coeff-En:   0.000D+00 0.100D+01
 Coeff:      0.000D+00 0.100D+01
 Gap=     0.019 Goal=   None    Shift=    0.000
 RMSDP=3.16D-02 MaxDP=9.92D-01 DE=-1.65D+00 OVMax= 7.75D-01

 Cycle   3  Pass 1  IDiag  1:
 E= -1133.32539814299     Delta-E=       -2.588600579133 Rises=F Damp=F
 DIIS: error= 8.87D-02 at cycle   3 NSaved=   3.
 NSaved= 3 IEnMin= 3 EnMin= -1133.32539814299     IErMin= 3 ErrMin= 8.87D-02
 ErrMax= 8.87D-02  0.00D+00 EMaxC= 1.00D-01 BMatC= 2.83D+00 BMatP= 4.27D+00
 IDIUse=3 WtCom= 1.13D-01 WtEn= 8.87D-01
 EnCoef did   100 forward-backward iterations
 Coeff-Com: -0.142D+01 0.217D+01 0.260D+00
 Coeff-En:   0.290D+00 0.790D-02 0.702D+00
 Coeff:      0.954D-01 0.253D+00 0.652D+00
 Gap=     0.167 Goal=   None    Shift=    0.000
 RMSDP=2.25D-02 MaxDP=5.44D-01 DE=-2.59D+00 OVMax= 5.02D-01

 Cycle   4  Pass 1  IDiag  1:
 E= -1136.06117830479     Delta-E=       -2.735780161796 Rises=F Damp=F
 DIIS: error= 2.47D-02 at cycle   4 NSaved=   4.
 NSaved= 4 IEnMin= 4 EnMin= -1136.06117830479     IErMin= 4 ErrMin= 2.47D-02
 ErrMax= 2.47D-02  0.00D+00 EMaxC= 1.00D-01 BMatC= 2.78D-01 BMatP= 2.83D+00
 IDIUse=3 WtCom= 7.53D-01 WtEn= 2.47D-01
 Coeff-Com: -0.986D+00 0.138D+01 0.664D-01 0.543D+00
 Coeff-En:   0.000D+00 0.000D+00 0.000D+00 0.100D+01
 Coeff:     -0.742D+00 0.104D+01 0.499D-01 0.656D+00
 Gap=     0.450 Goal=   None    Shift=    0.000
 RMSDP=6.02D-03 MaxDP=2.24D-01 DE=-2.74D+00 OVMax= 3.34D-01

 Cycle   5  Pass 1  IDiag  1:
 E= -1136.27986560604     Delta-E=       -0.218687301251 Rises=F Damp=F
 DIIS: error= 1.51D-02 at cycle   5 NSaved=   5.
 NSaved= 5 IEnMin= 5 EnMin= -1136.27986560604     IErMin= 5 ErrMin= 1.51D-02
 ErrMax= 1.51D-02  0.00D+00 EMaxC= 1.00D-01 BMatC= 8.14D-02 BMatP= 2.78D-01
 IDIUse=3 WtCom= 8.49D-01 WtEn= 1.51D-01
 Coeff-Com: -0.378D+00 0.534D+00-0.786D-01 0.215D+00 0.707D+00
 Coeff-En:   0.000D+00 0.000D+00 0.000D+00 0.326D-01 0.967D+00
 Coeff:     -0.321D+00 0.453D+00-0.667D-01 0.188D+00 0.746D+00
 Gap=     0.158 Goal=   None    Shift=    0.000
 RMSDP=2.32D-03 MaxDP=6.22D-02 DE=-2.19D-01 OVMax= 9.27D-02

 Cycle   6  Pass 1  IDiag  1:
 E= -1136.35079035746     Delta-E=       -0.070924751421 Rises=F Damp=F
 DIIS: error= 3.60D-03 at cycle   6 NSaved=   6.
 NSaved= 6 IEnMin= 6 EnMin= -1136.35079035746     IErMin= 6 ErrMin= 3.60D-03
 ErrMax= 3.60D-03  0.00D+00 EMaxC= 1.00D-01 BMatC= 6.56D-03 BMatP= 8.14D-02
 IDIUse=3 WtCom= 9.64D-01 WtEn= 3.60D-02
 Coeff-Com: -0.255D-01 0.485D-01-0.493D-01-0.245D-01 0.205D+00 0.846D+00
 Coeff-En:   0.000D+00 0.000D+00 0.000D+00 0.000D+00 0.000D+00 0.100D+01
 Coeff:     -0.246D-01 0.468D-01-0.475D-01-0.236D-01 0.197D+00 0.851D+00
 Gap=     0.161 Goal=   None    Shift=    0.000
 RMSDP=9.83D-04 MaxDP=3.08D-02 DE=-7.09D-02 OVMax= 3.33D-02

 Cycle   7  Pass 1  IDiag  1:
 E= -1136.35745300788     Delta-E=       -0.006662650419 Rises=F Damp=F
 DIIS: error= 1.20D-03 at cycle   7 NSaved=   7.
 NSaved= 7 IEnMin= 7 EnMin= -1136.35745300788     IErMin= 7 ErrMin= 1.20D-03
 ErrMax= 1.20D-03  0.00D+00 EMaxC= 1.00D-01 BMatC= 8.90D-04 BMatP= 6.56D-03
 IDIUse=3 WtCom= 9.88D-01 WtEn= 1.20D-02
 Coeff-Com:  0.292D-02-0.426D-02-0.106D-02-0.925D-02-0.106D+00 0.252D+00
 Coeff-Com:  0.865D+00
 Coeff-En:   0.000D+00 0.000D+00 0.000D+00 0.000D+00 0.000D+00 0.000D+00
 Coeff-En:   0.100D+01
 Coeff:      0.289D-02-0.421D-02-0.105D-02-0.914D-02-0.105D+00 0.249D+00
 Coeff:      0.867D+00
 Gap=     0.167 Goal=   None    Shift=    0.000
 RMSDP=4.45D-04 MaxDP=1.89D-02 DE=-6.66D-03 OVMax= 2.54D-02

 Cycle   8  Pass 1  IDiag  1:
 E= -1136.35877141225     Delta-E=       -0.001318404375 Rises=F Damp=F
 DIIS: error= 2.61D-04 at cycle   8 NSaved=   8.
 NSaved= 8 IEnMin= 8 EnMin= -1136.35877141225     IErMin= 8 ErrMin= 2.61D-04
 ErrMax= 2.61D-04  0.00D+00 EMaxC= 1.00D-01 BMatC= 3.44D-05 BMatP= 8.90D-04
 IDIUse=3 WtCom= 9.97D-01 WtEn= 2.61D-03
 Coeff-Com:  0.723D-03-0.204D-02 0.706D-03-0.426D-02-0.213D-01 0.233D-01
 Coeff-Com:  0.155D+00 0.848D+00
 Coeff-En:   0.000D+00 0.000D+00 0.000D+00 0.000D+00 0.000D+00 0.000D+00
 Coeff-En:   0.000D+00 0.100D+01
 Coeff:      0.721D-03-0.203D-02 0.704D-03-0.425D-02-0.213D-01 0.233D-01
 Coeff:      0.154D+00 0.849D+00
 Gap=     0.165 Goal=   None    Shift=    0.000
 RMSDP=1.22D-04 MaxDP=3.37D-03 DE=-1.32D-03 OVMax= 9.68D-03

 Cycle   9  Pass 1  IDiag  1:
 E= -1136.35890949190     Delta-E=       -0.000138079648 Rises=F Damp=F
 DIIS: error= 1.57D-04 at cycle   9 NSaved=   9.
 NSaved= 9 IEnMin= 9 EnMin= -1136.35890949190     IErMin= 9 ErrMin= 1.57D-04
 ErrMax= 1.57D-04  0.00D+00 EMaxC= 1.00D-01 BMatC= 1.35D-05 BMatP= 3.44D-05
 IDIUse=3 WtCom= 9.98D-01 WtEn= 1.57D-03
 Coeff-Com:  0.158D-02-0.263D-02 0.321D-03-0.151D-02 0.911D-02-0.260D-01
 Coeff-Com: -0.646D-01 0.326D+00 0.757D+00
 Coeff-En:   0.000D+00 0.000D+00 0.000D+00 0.000D+00 0.000D+00 0.000D+00
 Coeff-En:   0.000D+00 0.000D+00 0.100D+01
 Coeff:      0.158D-02-0.263D-02 0.320D-03-0.151D-02 0.910D-02-0.260D-01
 Coeff:     -0.645D-01 0.326D+00 0.758D+00
 Gap=     0.165 Goal=   None    Shift=    0.000
 RMSDP=8.37D-05 MaxDP=2.33D-03 DE=-1.38D-04 OVMax= 7.33D-03

 Cycle  10  Pass 1  IDiag  1:
 E= -1136.35896713095     Delta-E=       -0.000057639052 Rises=F Damp=F
 DIIS: error= 1.50D-04 at cycle  10 NSaved=  10.
 NSaved=10 IEnMin=10 EnMin= -1136.35896713095     IErMin=10 ErrMin= 1.50D-04
 ErrMax= 1.50D-04  0.00D+00 EMaxC= 1.00D-01 BMatC= 7.92D-06 BMatP= 1.35D-05
 IDIUse=3 WtCom= 9.98D-01 WtEn= 1.50D-03
 Coeff-Com:  0.170D-02-0.236D-02-0.902D-04 0.826D-03 0.157D-01-0.275D-01
 Coeff-Com: -0.101D+00-0.541D-01 0.501D+00 0.666D+00
 Coeff-En:   0.000D+00 0.000D+00 0.000D+00 0.000D+00 0.000D+00 0.000D+00
 Coeff-En:   0.000D+00 0.000D+00 0.000D+00 0.100D+01
 Coeff:      0.170D-02-0.236D-02-0.901D-04 0.825D-03 0.157D-01-0.275D-01
 Coeff:     -0.100D+00-0.540D-01 0.500D+00 0.666D+00
 Gap=     0.165 Goal=   None    Shift=    0.000
 RMSDP=6.45D-05 MaxDP=1.66D-03 DE=-5.76D-05 OVMax= 6.02D-03

 Cycle  11  Pass 1  IDiag  1:
 E= -1136.35899885637     Delta-E=       -0.000031725418 Rises=F Damp=F
 DIIS: error= 5.44D-05 at cycle  11 NSaved=  11.
 NSaved=11 IEnMin=11 EnMin= -1136.35899885637     IErMin=11 ErrMin= 5.44D-05
 ErrMax= 5.44D-05  0.00D+00 EMaxC= 1.00D-01 BMatC= 1.82D-06 BMatP= 7.92D-06
 IDIUse=1 WtCom= 1.00D+00 WtEn= 0.00D+00
 Coeff-Com:  0.751D-03-0.937D-03-0.227D-03 0.204D-02 0.506D-02-0.327D-02
 Coeff-Com: -0.206D-01-0.101D+00-0.158D+00 0.185D+00 0.109D+01
 Coeff:      0.751D-03-0.937D-03-0.227D-03 0.204D-02 0.506D-02-0.327D-02
 Coeff:     -0.206D-01-0.101D+00-0.158D+00 0.185D+00 0.109D+01
 Gap=     0.165 Goal=   None    Shift=    0.000
 RMSDP=6.28D-05 MaxDP=1.67D-03 DE=-3.17D-05 OVMax= 5.99D-03

 Cycle  12  Pass 1  IDiag  1:
 E= -1136.35901481353     Delta-E=       -0.000015957156 Rises=F Damp=F
 DIIS: error= 2.72D-05 at cycle  12 NSaved=  12.
 NSaved=12 IEnMin=12 EnMin= -1136.35901481353     IErMin=12 ErrMin= 2.72D-05
 ErrMax= 2.72D-05  0.00D+00 EMaxC= 1.00D-01 BMatC= 3.89D-07 BMatP= 1.82D-06
 IDIUse=1 WtCom= 1.00D+00 WtEn= 0.00D+00
 Coeff-Com:  0.313D-03-0.388D-03 0.153D-04 0.528D-03-0.150D-02 0.467D-02
 Coeff-Com:  0.130D-01 0.141D-01-0.152D+00-0.134D+00 0.234D+00 0.102D+01
 Coeff:      0.313D-03-0.388D-03 0.153D-04 0.528D-03-0.150D-02 0.467D-02
 Coeff:      0.130D-01 0.141D-01-0.152D+00-0.134D+00 0.234D+00 0.102D+01
 Gap=     0.166 Goal=   None    Shift=    0.000
 RMSDP=3.09D-05 MaxDP=8.58D-04 DE=-1.60D-05 OVMax= 2.92D-03

 Cycle  13  Pass 1  IDiag  1:
 E= -1136.35901834526     Delta-E=       -0.000003531727 Rises=F Damp=F
 DIIS: error= 1.43D-05 at cycle  13 NSaved=  13.
 NSaved=13 IEnMin=13 EnMin= -1136.35901834526     IErMin=13 ErrMin= 1.43D-05
 ErrMax= 1.43D-05  0.00D+00 EMaxC= 1.00D-01 BMatC= 1.05D-07 BMatP= 3.89D-07
 IDIUse=1 WtCom= 1.00D+00 WtEn= 0.00D+00
 Coeff-Com: -0.379D-04 0.562D-04 0.533D-04-0.470D-03-0.160D-02 0.328D-02
 Coeff-Com:  0.878D-02 0.404D-01-0.789D-02-0.121D+00-0.274D+00 0.443D+00
 Coeff-Com:  0.910D+00
 Coeff:     -0.379D-04 0.562D-04 0.533D-04-0.470D-03-0.160D-02 0.328D-02
 Coeff:      0.878D-02 0.404D-01-0.789D-02-0.121D+00-0.274D+00 0.443D+00
 Coeff:      0.910D+00
 Gap=     0.165 Goal=   None    Shift=    0.000
 RMSDP=1.75D-05 MaxDP=4.84D-04 DE=-3.53D-06 OVMax= 1.62D-03

 Cycle  14  Pass 1  IDiag  1:
 E= -1136.35901916809     Delta-E=       -0.000000822833 Rises=F Damp=F
 DIIS: error= 5.04D-06 at cycle  14 NSaved=  14.
 NSaved=14 IEnMin=14 EnMin= -1136.35901916809     IErMin=14 ErrMin= 5.04D-06
 ErrMax= 5.04D-06  0.00D+00 EMaxC= 1.00D-01 BMatC= 6.06D-09 BMatP= 1.05D-07
 IDIUse=1 WtCom= 1.00D+00 WtEn= 0.00D+00
 Coeff-Com:  0.922D-05-0.148D-04 0.222D-04-0.157D-03-0.231D-03-0.809D-04
 Coeff-Com:  0.807D-03 0.357D-02 0.125D-01-0.407D-04-0.479D-01-0.784D-01
 Coeff-Com:  0.432D-01 0.107D+01
 Coeff:      0.922D-05-0.148D-04 0.222D-04-0.157D-03-0.231D-03-0.809D-04
 Coeff:      0.807D-03 0.357D-02 0.125D-01-0.407D-04-0.479D-01-0.784D-01
 Coeff:      0.432D-01 0.107D+01
 Gap=     0.165 Goal=   None    Shift=    0.000
 RMSDP=4.48D-06 MaxDP=1.23D-04 DE=-8.23D-07 OVMax= 4.21D-04

 Cycle  15  Pass 1  IDiag  1:
 E= -1136.35901923583     Delta-E=       -0.000000067743 Rises=F Damp=F
 DIIS: error= 1.80D-06 at cycle  15 NSaved=  15.
 NSaved=15 IEnMin=15 EnMin= -1136.35901923583     IErMin=15 ErrMin= 1.80D-06
 ErrMax= 1.80D-06  0.00D+00 EMaxC= 1.00D-01 BMatC= 1.41D-09 BMatP= 6.06D-09
 IDIUse=1 WtCom= 1.00D+00 WtEn= 0.00D+00
 Coeff-Com:  0.126D-04-0.196D-04-0.523D-05 0.221D-04 0.142D-03-0.351D-03
 Coeff-Com: -0.646D-03-0.525D-02 0.555D-03 0.169D-01 0.380D-01-0.850D-01
 Coeff-Com: -0.130D+00 0.232D+00 0.933D+00
 Coeff:      0.126D-04-0.196D-04-0.523D-05 0.221D-04 0.142D-03-0.351D-03
 Coeff:     -0.646D-03-0.525D-02 0.555D-03 0.169D-01 0.380D-01-0.850D-01
 Coeff:     -0.130D+00 0.232D+00 0.933D+00
 Gap=     0.165 Goal=   None    Shift=    0.000
 RMSDP=1.26D-06 MaxDP=2.91D-05 DE=-6.77D-08 OVMax= 1.04D-04

 Cycle  16  Pass 1  IDiag  1:
 E= -1136.35901924287     Delta-E=       -0.000000007035 Rises=F Damp=F
 DIIS: error= 6.11D-07 at cycle  16 NSaved=  16.
 NSaved=16 IEnMin=16 EnMin= -1136.35901924287     IErMin=16 ErrMin= 6.11D-07
 ErrMax= 6.11D-07  0.00D+00 EMaxC= 1.00D-01 BMatC= 1.95D-10 BMatP= 1.41D-09
 IDIUse=1 WtCom= 1.00D+00 WtEn= 0.00D+00
 Coeff-Com:  0.352D-05-0.510D-05-0.467D-06 0.201D-04 0.373D-04-0.301D-04
 Coeff-Com: -0.576D-04-0.936D-03-0.213D-02 0.230D-02 0.133D-01-0.694D-02
 Coeff-Com: -0.260D-01-0.830D-01 0.162D+00 0.942D+00
 Coeff:      0.352D-05-0.510D-05-0.467D-06 0.201D-04 0.373D-04-0.301D-04
 Coeff:     -0.576D-04-0.936D-03-0.213D-02 0.230D-02 0.133D-01-0.694D-02
 Coeff:     -0.260D-01-0.830D-01 0.162D+00 0.942D+00
 Gap=     0.165 Goal=   None    Shift=    0.000
 RMSDP=4.22D-07 MaxDP=9.49D-06 DE=-7.03D-09 OVMax= 3.13D-05

 Cycle  17  Pass 1  IDiag  1:
 E= -1136.35901924387     Delta-E=       -0.000000001007 Rises=F Damp=F
 DIIS: error= 3.99D-07 at cycle  17 NSaved=  17.
 NSaved=17 IEnMin=17 EnMin= -1136.35901924387     IErMin=17 ErrMin= 3.99D-07
 ErrMax= 3.99D-07  0.00D+00 EMaxC= 1.00D-01 BMatC= 8.81D-11 BMatP= 1.95D-10
 IDIUse=1 WtCom= 1.00D+00 WtEn= 0.00D+00
 Coeff-Com: -0.435D-05 0.639D-05 0.983D-06-0.880D-05-0.292D-04 0.101D-03
 Coeff-Com:  0.149D-03 0.571D-03-0.698D-03-0.245D-02-0.342D-02 0.143D-01
 Coeff-Com:  0.185D-01-0.458D-01-0.195D+00 0.270D+00 0.943D+00
 Coeff:     -0.435D-05 0.639D-05 0.983D-06-0.880D-05-0.292D-04 0.101D-03
 Coeff:      0.149D-03 0.571D-03-0.698D-03-0.245D-02-0.342D-02 0.143D-01
 Coeff:      0.185D-01-0.458D-01-0.195D+00 0.270D+00 0.943D+00
 Gap=     0.165 Goal=   None    Shift=    0.000
 RMSDP=2.61D-07 MaxDP=5.43D-06 DE=-1.01D-09 OVMax= 1.64D-05

 Cycle  18  Pass 1  IDiag  1:
 E= -1136.35901924420     Delta-E=       -0.000000000321 Rises=F Damp=F
 DIIS: error= 1.73D-07 at cycle  18 NSaved=  18.
 NSaved=18 IEnMin=18 EnMin= -1136.35901924420     IErMin=18 ErrMin= 1.73D-07
 ErrMax= 1.73D-07  0.00D+00 EMaxC= 1.00D-01 BMatC= 2.29D-11 BMatP= 8.81D-11
 IDIUse=1 WtCom= 1.00D+00 WtEn= 0.00D+00
 Coeff-Com: -0.311D-05 0.458D-05 0.754D-06-0.904D-05-0.268D-04 0.337D-04
 Coeff-Com:  0.115D-03 0.153D-03-0.208D-04-0.807D-03-0.211D-02 0.339D-02
 Coeff-Com:  0.444D-02 0.113D-01-0.817D-01-0.245D-01 0.359D-01 0.105D+01
 Coeff:     -0.311D-05 0.458D-05 0.754D-06-0.904D-05-0.268D-04 0.337D-04
 Coeff:      0.115D-03 0.153D-03-0.208D-04-0.807D-03-0.211D-02 0.339D-02
 Coeff:      0.444D-02 0.113D-01-0.817D-01-0.245D-01 0.359D-01 0.105D+01
 Gap=     0.165 Goal=   None    Shift=    0.000
 RMSDP=1.43D-07 MaxDP=3.18D-06 DE=-3.21D-10 OVMax= 1.02D-05

 Cycle  19  Pass 1  IDiag  1:
 E= -1136.35901924428     Delta-E=       -0.000000000088 Rises=F Damp=F
 DIIS: error= 9.78D-08 at cycle  19 NSaved=  19.
 NSaved=19 IEnMin=19 EnMin= -1136.35901924428     IErMin=19 ErrMin= 9.78D-08
 ErrMax= 9.78D-08  0.00D+00 EMaxC= 1.00D-01 BMatC= 6.12D-12 BMatP= 2.29D-11
 IDIUse=1 WtCom= 1.00D+00 WtEn= 0.00D+00
 Coeff-Com: -0.244D-06 0.396D-06 0.353D-06-0.156D-05-0.849D-05-0.103D-04
 Coeff-Com:  0.480D-04-0.673D-04-0.144D-04 0.261D-03 0.589D-03-0.209D-02
 Coeff-Com: -0.367D-02 0.132D-01 0.159D-01-0.186D-01-0.281D+00 0.157D+00
 Coeff-Com:  0.112D+01
 Coeff:     -0.244D-06 0.396D-06 0.353D-06-0.156D-05-0.849D-05-0.103D-04
 Coeff:      0.480D-04-0.673D-04-0.144D-04 0.261D-03 0.589D-03-0.209D-02
 Coeff:     -0.367D-02 0.132D-01 0.159D-01-0.186D-01-0.281D+00 0.157D+00
 Coeff:      0.112D+01
 Gap=     0.165 Goal=   None    Shift=    0.000
 RMSDP=9.20D-08 MaxDP=2.24D-06 DE=-8.78D-11 OVMax= 6.34D-06

 Cycle  20  Pass 1  IDiag  1:
 E= -1136.35901924431     Delta-E=       -0.000000000025 Rises=F Damp=F
 DIIS: error= 3.38D-08 at cycle  20 NSaved=  20.
 NSaved=20 IEnMin=20 EnMin= -1136.35901924431     IErMin=20 ErrMin= 3.38D-08
 ErrMax= 3.38D-08  0.00D+00 EMaxC= 1.00D-01 BMatC= 8.66D-13 BMatP= 6.12D-12
 IDIUse=1 WtCom= 1.00D+00 WtEn= 0.00D+00
 Coeff-Com: -0.814D-07 0.528D-07-0.805D-07 0.106D-05 0.222D-05-0.857D-05
 Coeff-Com: -0.218D-05-0.671D-04-0.332D-04 0.274D-03 0.792D-03-0.148D-02
 Coeff-Com: -0.229D-02 0.243D-02 0.205D-01 0.864D-02-0.115D+00-0.181D+00
 Coeff-Com:  0.355D+00 0.912D+00
 Coeff:     -0.814D-07 0.528D-07-0.805D-07 0.106D-05 0.222D-05-0.857D-05
 Coeff:     -0.218D-05-0.671D-04-0.332D-04 0.274D-03 0.792D-03-0.148D-02
 Coeff:     -0.229D-02 0.243D-02 0.205D-01 0.864D-02-0.115D+00-0.181D+00
 Coeff:      0.355D+00 0.912D+00
 Gap=     0.165 Goal=   None    Shift=    0.000
 RMSDP=3.94D-08 MaxDP=9.90D-07 DE=-2.50D-11 OVMax= 2.54D-06

 Cycle  21  Pass 1  IDiag  1:
 E= -1136.35901924432     Delta-E=       -0.000000000013 Rises=F Damp=F
 DIIS: error= 7.52D-09 at cycle  21 NSaved=  20.
 NSaved=20 IEnMin=20 EnMin= -1136.35901924432     IErMin=20 ErrMin= 7.52D-09
 ErrMax= 7.52D-09  0.00D+00 EMaxC= 1.00D-01 BMatC= 3.82D-14 BMatP= 8.66D-13
 IDIUse=1 WtCom= 1.00D+00 WtEn= 0.00D+00
 Coeff-Com: -0.135D-07 0.203D-08 0.115D-06 0.621D-06 0.210D-05-0.377D-05
 Coeff-Com:  0.200D-04-0.138D-04-0.651D-04-0.883D-04 0.371D-03 0.646D-03
 Coeff-Com: -0.239D-02-0.328D-02 0.931D-02 0.385D-01-0.372D-01-0.143D+00
 Coeff-Com:  0.810D-01 0.106D+01
 Coeff:     -0.135D-07 0.203D-08 0.115D-06 0.621D-06 0.210D-05-0.377D-05
 Coeff:      0.200D-04-0.138D-04-0.651D-04-0.883D-04 0.371D-03 0.646D-03
 Coeff:     -0.239D-02-0.328D-02 0.931D-02 0.385D-01-0.372D-01-0.143D+00
 Coeff:      0.810D-01 0.106D+01
 Gap=     0.165 Goal=   None    Shift=    0.000
 RMSDP=8.48D-09 MaxDP=2.22D-07 DE=-1.27D-11 OVMax= 5.90D-07

 SCF Done:  E(RwB97XD) =  -1136.35901924     A.U. after   21 cycles
            NFock= 21  Conv=0.85D-08     -V/T= 2.4736
 KE= 7.711623049777D+02 PE=-4.372890235706D+03 EE= 1.564964840559D+03
 Leave Link  502 at Tue Feb 25 23:55:40 2025, MaxMem=  1048576000 cpu:              71.1 elap:              19.3
 (Enter /nvme/h/buildsets/eb_nepheli/software/Gaussian/16.C.01-AVX2/g16/l508.exe)
 QCSCF skips out because SCF is already converged.
 Leave Link  508 at Tue Feb 25 23:55:40 2025, MaxMem=  1048576000 cpu:               0.0 elap:               0.0
 (Enter /nvme/h/buildsets/eb_nepheli/software/Gaussian/16.C.01-AVX2/g16/l601.exe)
 Copying SCF densities to generalized density rwf, IOpCl= 0 IROHF=0.

 **********************************************************************

            Population analysis using the SCF Density.

 **********************************************************************

 Orbital symmetries:
       Occupied  (A) (A) (A) (A) (A) (A) (A) (A) (A) (A) (A) (A)
                 (A) (A) (A) (A) (A) (A) (A) (A) (A) (A) (A) (A)
                 (A) (A) (A) (A) (A) (A) (A) (A) (A) (A) (A) (A)
                 (A) (A) (A) (A) (A) (A) (A) (A) (A) (A) (A) (A)
                 (A) (A) (A) (A) (A) (A)
       Virtual   (A) (A) (A) (A) (A) (A) (A) (A) (A) (A) (A) (A)
                 (A) (A) (A) (A) (A) (A) (A) (A) (A) (A) (A) (A)
                 (A) (A) (A) (A) (A) (A) (A) (A) (A) (A) (A) (A)
                 (A) (A) (A) (A) (A) (A) (A) (A) (A) (A) (A) (A)
                 (A) (A) (A) (A) (A) (A) (A) (A) (A) (A) (A) (A)
                 (A) (A) (A) (A) (A) (A) (A) (A) (A) (A) (A) (A)
                 (A) (A) (A) (A) (A) (A) (A) (A) (A) (A) (A) (A)
                 (A) (A) (A) (A) (A) (A) (A) (A) (A) (A) (A) (A)
                 (A) (A) (A) (A) (A) (A) (A) (A) (A) (A) (A) (A)
                 (A) (A) (A) (A) (A) (A) (A) (A)
 The electronic state is 1-A.
 Alpha  occ. eigenvalues --  -89.04425 -19.23225 -19.23213  -8.08604  -6.04256
 Alpha  occ. eigenvalues --   -6.03782  -6.02888  -3.85595  -3.85167  -3.85152
 Alpha  occ. eigenvalues --   -3.84121  -2.43938  -2.43737  -2.43706  -2.43653
 Alpha  occ. eigenvalues --   -2.43503  -2.43481  -2.43465  -2.43148  -2.43137
 Alpha  occ. eigenvalues --   -2.42648  -2.42346  -2.42259  -1.08684  -1.00157
 Alpha  occ. eigenvalues --   -0.68362  -0.52280  -0.49352  -0.48426  -0.47418
 Alpha  occ. eigenvalues --   -0.45716  -0.45492  -0.45015  -0.44841  -0.44385
 Alpha  occ. eigenvalues --   -0.43788  -0.43294  -0.42605  -0.42591  -0.41760
 Alpha  occ. eigenvalues --   -0.41729  -0.41660  -0.41417  -0.41030  -0.40169
 Alpha  occ. eigenvalues --   -0.40148  -0.40064  -0.39522  -0.39189  -0.38189
 Alpha  occ. eigenvalues --   -0.34609  -0.33241  -0.28637  -0.21216
 Alpha virt. eigenvalues --   -0.04667  -0.03948  -0.02167   0.02843   0.05231
 Alpha virt. eigenvalues --    0.05484   0.06703   0.08548   0.10789   0.12239
 Alpha virt. eigenvalues --    0.12506   0.13388   0.13704   0.14341   0.15681
 Alpha virt. eigenvalues --    0.18828   0.20086   0.21809   0.24166   0.25536
 Alpha virt. eigenvalues --    0.25769   0.27071   0.32646   0.33579   0.33894
 Alpha virt. eigenvalues --    0.36562   0.37355   0.42821   0.43613   0.43627
 Alpha virt. eigenvalues --    0.44421   0.46986   0.49108   0.49357   0.51240
 Alpha virt. eigenvalues --    0.51377   0.60092   0.60925   0.62543   0.64302
 Alpha virt. eigenvalues --    0.64753   0.67151   0.68987   0.69809   0.70974
 Alpha virt. eigenvalues --    0.71873   0.71992   0.73480   0.77232   0.77308
 Alpha virt. eigenvalues --    0.77684   0.81844   0.85388   0.85782   0.87216
 Alpha virt. eigenvalues --    0.88677   0.88771   0.90090   0.91073   0.98332
 Alpha virt. eigenvalues --    1.12522   1.14252   1.22365   1.26893   1.33046
 Alpha virt. eigenvalues --    1.33334   1.44038   1.46197   1.63353   1.63963
 Alpha virt. eigenvalues --    2.12797   2.22829   2.26507   2.26537   2.66484
 Alpha virt. eigenvalues --    2.66567   2.66614   2.66644   2.66649   2.66666
 Alpha virt. eigenvalues --    2.66805   2.66829   2.66922   2.66926   2.66955
 Alpha virt. eigenvalues --    2.67129   2.67158   2.67161   2.67283   2.67300
 Alpha virt. eigenvalues --    2.67506   2.67783   2.67840   2.68122   2.68716
 Alpha virt. eigenvalues --    2.68828   2.68948   2.69326   2.69578   2.69765
 Alpha virt. eigenvalues --    2.71147   2.72278   2.75832   2.77591   2.78705
 Alpha virt. eigenvalues --    2.79233   2.85767   2.87559   2.92089   2.96485
 Alpha virt. eigenvalues --    3.18062   3.32083  54.29357  54.37178  54.40185
 Alpha virt. eigenvalues --   54.40945
          Condensed to atoms (all electrons):
               1          2          3          4          5          6
     1  Ag  18.492215   0.109359   0.021684  -0.035616  -0.019750   0.083071
     2  Ag   0.109359  18.932925   0.085412   0.110589  -0.003991  -0.018525
     3  Ag   0.021684   0.085412  18.456807   0.020957  -0.031747   0.073753
     4  Ag  -0.035616   0.110589   0.020957  18.492231  -0.020017   0.035529
     5  S   -0.019750  -0.003991  -0.031747  -0.020017  15.319792   0.137316
     6  O    0.083071  -0.018525   0.073753   0.035529   0.137316   8.342449
     7  O    0.035511  -0.018614   0.073745   0.083163   0.137373  -0.048613
               7
     1  Ag   0.035511
     2  Ag  -0.018614
     3  Ag   0.073745
     4  Ag   0.083163
     5  S    0.137373
     6  O   -0.048613
     7  O    8.342409
 Mulliken charges:
               1
     1  Ag   0.313528
     2  Ag  -0.197154
     3  Ag   0.299389
     4  Ag   0.313165
     5  S    0.481025
     6  O   -0.604979
     7  O   -0.604974
 Sum of Mulliken charges =  -0.00000
 Mulliken charges with hydrogens summed into heavy atoms:
               1
     1  Ag   0.313528
     2  Ag  -0.197154
     3  Ag   0.299389
     4  Ag   0.313165
     5  S    0.481025
     6  O   -0.604979
     7  O   -0.604974
 Electronic spatial extent (au):  <R**2>=           1904.5300
 Charge=              0.0000 electrons
 Dipole moment (field-independent basis, Debye):
    X=              5.0201    Y=              0.0073    Z=             -0.4135  Tot=              5.0371
 Quadrupole moment (field-independent basis, Debye-Ang):
   XX=           -106.6793   YY=            -97.7006   ZZ=            -93.9412
   XY=             -0.0065   XZ=              0.4741   YZ=             -0.0543
 Traceless Quadrupole moment (field-independent basis, Debye-Ang):
   XX=             -7.2390   YY=              1.7397   ZZ=              5.4992
   XY=             -0.0065   XZ=              0.4741   YZ=             -0.0543
 Octapole moment (field-independent basis, Debye-Ang**2):
  XXX=            109.6309  YYY=              0.6105  ZZZ=              7.8833  XYY=             37.7265
  XXY=             -0.0648  XXZ=              2.0938  XZZ=             20.9458  YZZ=             -0.5061
  YYZ=            -11.0076  XYZ=              0.2607
 Hexadecapole moment (field-independent basis, Debye-Ang**3):
 XXXX=          -1527.0995 YYYY=           -625.5161 ZZZZ=           -596.2928 XXXY=             -0.2270
 XXXZ=             11.1020 YYYX=             -0.0395 YYYZ=             -0.3333 ZZZX=            -17.2161
 ZZZY=             -0.0306 XXYY=           -390.7226 XXZZ=           -367.5461 YYZZ=           -200.8810
 XXYZ=             -0.3614 YYXZ=              0.0971 ZZXY=              0.2661
 N-N= 9.004040709255D+02 E-N=-4.372890238236D+03  KE= 7.711623049777D+02
 No NMR shielding tensors so no spin-rotation constants.
 Leave Link  601 at Tue Feb 25 23:55:40 2025, MaxMem=  1048576000 cpu:               0.4 elap:               0.1
 (Enter /nvme/h/buildsets/eb_nepheli/software/Gaussian/16.C.01-AVX2/g16/l701.exe)
 ... and contract with generalized density number  0.
 Compute integral first derivatives.
 R6Disp: Adding Grimme-D2 dispersion energy 1st derivatives to the gradient.
   1 Symmetry operations used in ECPInt.
 ECPInt:  NShTT=    2080 NPrTT=    7130 LenC2=    2060 LenP2D=    5974.
 LDataN:  DoStor=T MaxTD1= 8 Len=  415
 Leave Link  701 at Tue Feb 25 23:55:42 2025, MaxMem=  1048576000 cpu:               7.4 elap:               1.9
 (Enter /nvme/h/buildsets/eb_nepheli/software/Gaussian/16.C.01-AVX2/g16/l702.exe)
 L702 exits ... SP integral derivatives will be done elsewhere.
 Leave Link  702 at Tue Feb 25 23:55:42 2025, MaxMem=  1048576000 cpu:               0.1 elap:               0.0
 (Enter /nvme/h/buildsets/eb_nepheli/software/Gaussian/16.C.01-AVX2/g16/l703.exe)
 Integral derivatives from FoFJK, PRISM(SPDF).
 Compute integral first derivatives, UseDBF=F ICtDFT=           0.
 Calling FoFJK, ICntrl=      2127 FMM=F ISym2X=0 I1Cent= 0 IOpClX= 0 NMat=1 NMatS=1 NMatT=0.
 FoFJK:  IHMeth= 1 ICntrl=    2127 DoSepK=T KAlg= 0 I1Cent=           0 FoldK=F
 IRaf=         1 NMat=       1 IRICut=       1 DoRegI=T DoRafI=F ISym2E= 0 IDoP0=0 IntGTp=1.
 FoFCou: FMM=F IPFlag=           0 FMFlag=      100000 FMFlg1=         800
         NFxFlg=           0 DoJE=F BraDBF=F KetDBF=F FulRan=T
         wScrn=  0.000000 ICntrl=      2527 IOpCl=  0 I1Cent=           0 NGrid=           0
         NMat0=    1 NMatS0=      1 NMatT0=    0 NMatD0=    1 NMtDS0=    0 NMtDT0=    0
 Symmetry not used in FoFCou.
 Defaulting to unpruned grid for atomic number  47.
 Defaulting to unpruned grid for atomic number  47.
 Defaulting to unpruned grid for atomic number  47.
 Defaulting to unpruned grid for atomic number  47.
 Leave Link  703 at Tue Feb 25 23:55:52 2025, MaxMem=  1048576000 cpu:              36.3 elap:               9.2
 (Enter /nvme/h/buildsets/eb_nepheli/software/Gaussian/16.C.01-AVX2/g16/l716.exe)
 Dipole        = 1.97506626D+00 2.85966046D-03-1.62681369D-01
 ***** Axes restored to original set *****
 -------------------------------------------------------------------
 Center     Atomic                   Forces (Hartrees/Bohr)
 Number     Number              X              Y              Z
 -------------------------------------------------------------------
      1       47          -0.000008898    0.000007496    0.000026465
      2       47           0.000038960   -0.000005420    0.000002393
      3       47          -0.000022355   -0.000024819   -0.000026247
      4       47          -0.000027635    0.000007687   -0.000002658
      5       16           0.000017700   -0.000017483   -0.000006233
      6        8          -0.000022169    0.000018920   -0.000025554
      7        8           0.000024396    0.000013619    0.000031834
 -------------------------------------------------------------------
 Cartesian Forces:  Max     0.000038960 RMS     0.000020676
 Z-matrix is all fixed cartesians, so copy forces.
 Force constants in Cartesian coordinates: 
                1             2             3             4             5 
      1  0.214436D+00
      2 -0.352344D-01  0.117295D+00
      3  0.168408D-01 -0.214991D-01  0.184656D+00
      4 -0.229410D-01 -0.597286D-03 -0.293498D-01  0.930689D-01
      5  0.418997D-02 -0.112271D-01  0.635180D-02 -0.124204D-01  0.890636D-01
      6  0.101896D-01 -0.163738D-01 -0.794366D-01 -0.322151D-01  0.381566D-01
      7 -0.593563D-01 -0.196179D-01 -0.272522D-01 -0.669418D-01 -0.193676D-01
      8  0.926018D-02 -0.198244D-01  0.454203D-02  0.957860D-02 -0.205799D-01
      9 -0.262585D-01 -0.973552D-02 -0.195203D-01  0.420150D-01  0.446579D-02
     10 -0.250776D-01  0.343988D-01 -0.147452D-01 -0.182000D-01  0.185964D-01
     11 -0.150999D-02 -0.538580D-01  0.189004D-01 -0.564701D-02 -0.689201D-01
     12  0.153264D-02  0.407088D-01 -0.331832D-01  0.789949D-02 -0.434367D-01
     13  0.166200D-02  0.152198D-01  0.506655D-03  0.427026D-04 -0.981329D-05
     14  0.712692D-03  0.893661D-02 -0.303669D-03 -0.938465D-04  0.872199D-04
     15  0.101021D-02 -0.906030D-02  0.348965D-02 -0.408583D-04 -0.184761D-03
     16 -0.102338D+00 -0.285014D-02  0.504672D-01  0.105749D-01  0.852022D-03
     17  0.149352D-01 -0.395843D-01 -0.201011D-02  0.506534D-03  0.462896D-02
     18  0.265909D-02  0.121243D-01 -0.603547D-01  0.841036D-02 -0.125002D-02
     19 -0.638532D-02  0.868118D-02  0.353261D-02  0.439624D-02  0.815943D-02
     20  0.764644D-02 -0.173748D-02 -0.598127D-02  0.867340D-02  0.694728D-02
     21 -0.597375D-02  0.383563D-02  0.434942D-02  0.328094D-02 -0.410270D-02
                6             7             8             9            10 
      6  0.141424D+00
      7 -0.375641D-03  0.230852D+00
      8 -0.115397D-01  0.515774D-01  0.175355D+00
      9 -0.330142D-01  0.202774D-01  0.366671D-01  0.173620D+00
     10  0.108394D-01 -0.356688D-01 -0.393137D-01  0.481097D-02  0.160122D+00
     11 -0.462229D-02 -0.233663D-01 -0.474482D-01  0.147690D-01  0.173209D-01
     12 -0.264219D-01 -0.132750D-01 -0.675818D-02 -0.156686D-01 -0.449488D-01
     13  0.814997D-04  0.668556D-02 -0.421287D-02 -0.975339D-03  0.106475D-01
     14 -0.138492D-03  0.221894D-02  0.627860D-02 -0.155795D-01 -0.114251D-02
     15 -0.312603D-04  0.845910D-02 -0.120373D-01 -0.626634D-02 -0.452815D-03
     16  0.770259D-02 -0.425788D-01  0.136314D-02 -0.319702D-01  0.302997D-02
     17 -0.533649D-03 -0.491201D-02 -0.286831D-01 -0.227405D-01 -0.670619D-02
     18 -0.319325D-02  0.202952D-02  0.940101D-02 -0.632888D-01  0.511812D-02
     19  0.377766D-02 -0.329915D-01 -0.282528D-01 -0.789927D-02 -0.948529D-01
     20 -0.494878D-02  0.134674D-01 -0.650983D-01 -0.784635D-02 -0.231537D-01
     21  0.673615D-03  0.101369D-01 -0.202751D-01 -0.358622D-01  0.393783D-01
               11            12            13            14            15 
     11  0.217616D+00
     12 -0.220828D-01  0.138676D+00
     13 -0.489721D-02  0.158149D-01  0.175439D+00
     14  0.416651D-02 -0.142542D-02 -0.196842D+00  0.493862D+00
     15  0.141582D-02 -0.664478D-03 -0.405009D-01 -0.837145D-01  0.524815D+00
     16 -0.222086D-02  0.368969D-02 -0.139370D+00  0.185242D+00  0.168886D-01
     17 -0.784623D-03  0.126283D-01  0.173322D+00 -0.399495D+00 -0.125643D-01
     18 -0.236793D-03 -0.600595D-02  0.376223D-01 -0.598173D-01 -0.754291D-01
     19  0.203205D-01  0.292871D-01 -0.551077D-01  0.990489D-02  0.146366D-01
     20 -0.507721D-01  0.203660D-01  0.174204D-01 -0.113836D+00  0.116145D+00
     21 -0.814328D-02 -0.567314D-01 -0.125491D-01  0.160979D+00 -0.445913D+00
               16            17            18            19            20 
     16  0.262539D+00
     17 -0.186881D+00  0.469339D+00
     18 -0.463391D-01  0.154514D-01  0.200205D+00
     19  0.814158D-02  0.973634D-02 -0.950030D-02  0.176800D+00
     20  0.449551D-02 -0.542069D-02  0.243273D-01 -0.285495D-01  0.229917D+00
     21 -0.438788D-03  0.976880D-02  0.806642D-02 -0.338344D-01 -0.142062D+00
               21 
     21  0.525417D+00
 Leave Link  716 at Tue Feb 25 23:55:52 2025, MaxMem=  1048576000 cpu:               0.1 elap:               0.0
 (Enter /nvme/h/buildsets/eb_nepheli/software/Gaussian/16.C.01-AVX2/g16/l103.exe)

 GradGradGradGradGradGradGradGradGradGradGradGradGradGradGradGradGradGrad
 Berny optimization.
 Search for a local minimum.
 Step number   1 out of a maximum of    2
 All quantities printed in internal units (Hartrees-Bohrs-Radians)
 Second derivative matrix not updated -- first step.
 ITU=  0
     Eigenvalues ---    0.06839   0.08188   0.12274   0.14116   0.18985
     Eigenvalues ---    0.19382   0.23249   0.24683   0.26140   0.28695
     Eigenvalues ---    0.30453   0.32321   0.35041   0.96394   1.14672
 Angle between quadratic step and forces=  40.36 degrees.
 Linear search not attempted -- first point.
 B after Tr=     0.000012    0.000032    0.000009
         Rot=    1.000000   -0.000004    0.000000    0.000004 Ang=  -0.00 deg.
 Variable       Old X    -DE/DX   Delta X   Delta X   Delta X     New X
                                 (Linear)    (Quad)   (Total)
    X1       -0.06841  -0.00001   0.00000  -0.00014  -0.00013  -0.06853
    Y1       -0.18328   0.00001   0.00000   0.00011   0.00014  -0.18314
    Z1        0.08789   0.00003   0.00000   0.00009   0.00010   0.08799
    X2        0.36244   0.00004   0.00000   0.00027   0.00029   0.36273
    Y2        0.21329  -0.00001   0.00000  -0.00013  -0.00015   0.21314
    Z2        5.37513   0.00000   0.00000   0.00010   0.00011   5.37524
    X3        4.94070  -0.00002   0.00000  -0.00013  -0.00012   4.94058
    Y3        0.00377  -0.00002   0.00000  -0.00001  -0.00004   0.00373
    Z3        2.53556  -0.00003   0.00000  -0.00020  -0.00019   2.53537
    X4        1.52026  -0.00003   0.00000  -0.00027  -0.00029   1.51997
    Y4       -4.38183   0.00001   0.00000   0.00004   0.00004  -4.38179
    Z4        2.95623  -0.00000   0.00000  -0.00019  -0.00022   2.95601
    X5        4.98832   0.00002   0.00000   0.00031   0.00029   4.98861
    Y5       -3.22531  -0.00002   0.00000  -0.00001  -0.00000  -3.22531
    Z5       -2.22501  -0.00001   0.00000   0.00018   0.00016  -2.22485
    X6        3.59169  -0.00002   0.00000  -0.00016  -0.00015   3.59153
    Y6       -0.54370   0.00002   0.00000  -0.00013  -0.00012  -0.54382
    Z6       -1.90781  -0.00003   0.00000  -0.00021  -0.00020  -1.90801
    X7        4.99580   0.00002   0.00000   0.00014   0.00011   4.99591
    Y7       -4.27135   0.00001   0.00000   0.00014   0.00013  -4.27122
    Z7        0.62891   0.00003   0.00000   0.00027   0.00024   0.62915
         Item               Value     Threshold  Converged?
 Maximum Force            0.000039     0.000450     YES
 RMS     Force            0.000021     0.000300     YES
 Maximum Displacement     0.000293     0.001800     YES
 RMS     Displacement     0.000172     0.001200     YES
 Predicted change in Energy=-2.846179D-08
 Optimization completed.
    -- Stationary point found.
 GradGradGradGradGradGradGradGradGradGradGradGradGradGradGradGradGradGrad

 Leave Link  103 at Tue Feb 25 23:55:52 2025, MaxMem=  1048576000 cpu:               0.2 elap:               0.1
 (Enter /nvme/h/buildsets/eb_nepheli/software/Gaussian/16.C.01-AVX2/g16/l9999.exe)
 Unable to Open any file for archive entry.
 1\1\GINC-NE08\Force\RwB97XD\def2SVP\Ag4O2S1\NPATSALIDIS\25-Feb-2025\0\
 \#p wb97xd/def2SVP scf(xqc) scfcyc=999 force\\Template file\\0,1\Ag,-0
 .036199,-0.096985,0.046511\Ag,0.191796,0.112867,2.844397\Ag,2.614507,0
 .001995,1.341759\Ag,0.804485,-2.318762,1.56437\S,2.639705,-1.706761,-1
 .177425\O,1.900638,-0.287714,-1.00957\O,2.643662,-2.260302,0.332805\\V
 ersion=ES64L-G16RevC.01\State=1-A\HF=-1136.3590192\RMSD=8.480e-09\RMSF
 =2.068e-05\Dipole=-1.223485,0.5365596,1.4637446\Quadrupole=0.6165508,1
 .5211375,-2.1376883,2.2958523,3.7465238,-0.9296315\PG=C01 [X(Ag4O2S1)]
 \\@
 The archive entry for this job was punched.


 MARY HAD A LITTLE LAMB
      HIS FEET WERE BLACK AS SOOT,
           AND EVERYWHERE THAT MARY WENT
                HIS SOOTY FOOT HE PUT.

                    -- NONAME
 Job cpu time:       0 days  0 hours  2 minutes  2.4 seconds.
 Elapsed time:       0 days  0 hours  0 minutes 32.4 seconds.
 File lengths (MBytes):  RWF=     21 Int=      0 D2E=      0 Chk=      3 Scr=      1
 Normal termination of Gaussian 16 at Tue Feb 25 23:55:52 2025.
