 Entering Gaussian System, Link 0=g16
 Initial command:
 /nvme/h/buildsets/eb_nepheli/software/Gaussian/16.C.01-AVX2/g16/l1.exe "/onyx/data/simea/nikolas/postDoc/Active-Learning-Package/gas_SO2/init_data/Gau-83407.inp" -scrdir="/onyx/data/simea/nikolas/postDoc/Active-Learning-Package/gas_SO2/init_data/"
 Entering Link 1 = /nvme/h/buildsets/eb_nepheli/software/Gaussian/16.C.01-AVX2/g16/l1.exe PID=     83408.
  
 Copyright (c) 1988-2019, Gaussian, Inc.  All Rights Reserved.
  
 This is part of the Gaussian(R) 16 program.  It is based on
 the Gaussian(R) 09 system (copyright 2009, Gaussian, Inc.),
 the Gaussian(R) 03 system (copyright 2003, Gaussian, Inc.),
 the Gaussian(R) 98 system (copyright 1998, Gaussian, Inc.),
 the Gaussian(R) 94 system (copyright 1995, Gaussian, Inc.),
 the Gaussian 92(TM) system (copyright 1992, Gaussian, Inc.),
 the Gaussian 90(TM) system (copyright 1990, Gaussian, Inc.),
 the Gaussian 88(TM) system (copyright 1988, Gaussian, Inc.),
 the Gaussian 86(TM) system (copyright 1986, Carnegie Mellon
 University), and the Gaussian 82(TM) system (copyright 1983,
 Carnegie Mellon University). Gaussian is a federally registered
 trademark of Gaussian, Inc.
  
 This software contains proprietary and confidential information,
 including trade secrets, belonging to Gaussian, Inc.
  
 This software is provided under written license and may be
 used, copied, transmitted, or stored only in accord with that
 written license.
  
 The following legend is applicable only to US Government
 contracts under FAR:
  
                    RESTRICTED RIGHTS LEGEND
  
 Use, reproduction and disclosure by the US Government is
 subject to restrictions as set forth in subparagraphs (a)
 and (c) of the Commercial Computer Software - Restricted
 Rights clause in FAR 52.227-19.
  
 Gaussian, Inc.
 340 Quinnipiac St., Bldg. 40, Wallingford CT 06492
  
  
 ---------------------------------------------------------------
 Warning -- This program may not be used in any manner that
 competes with the business of Gaussian, Inc. or will provide
 assistance to any competitor of Gaussian, Inc.  The licensee
 of this program is prohibited from giving any competitor of
 Gaussian, Inc. access to this program.  By using this program,
 the user acknowledges that Gaussian, Inc. is engaged in the
 business of creating and licensing software in the field of
 computational chemistry and represents and warrants to the
 licensee that it is not a competitor of Gaussian, Inc. and that
 it will not use this program in any manner prohibited above.
 ---------------------------------------------------------------
  

 Cite this work as:
 Gaussian 16, Revision C.01,
 M. J. Frisch, G. W. Trucks, H. B. Schlegel, G. E. Scuseria, 
 M. A. Robb, J. R. Cheeseman, G. Scalmani, V. Barone, 
 G. A. Petersson, H. Nakatsuji, X. Li, M. Caricato, A. V. Marenich, 
 J. Bloino, B. G. Janesko, R. Gomperts, B. Mennucci, H. P. Hratchian, 
 J. V. Ortiz, A. F. Izmaylov, J. L. Sonnenberg, D. Williams-Young, 
 F. Ding, F. Lipparini, F. Egidi, J. Goings, B. Peng, A. Petrone, 
 T. Henderson, D. Ranasinghe, V. G. Zakrzewski, J. Gao, N. Rega, 
 G. Zheng, W. Liang, M. Hada, M. Ehara, K. Toyota, R. Fukuda, 
 J. Hasegawa, M. Ishida, T. Nakajima, Y. Honda, O. Kitao, H. Nakai, 
 T. Vreven, K. Throssell, J. A. Montgomery, Jr., J. E. Peralta, 
 F. Ogliaro, M. J. Bearpark, J. J. Heyd, E. N. Brothers, K. N. Kudin, 
 V. N. Staroverov, T. A. Keith, R. Kobayashi, J. Normand, 
 K. Raghavachari, A. P. Rendell, J. C. Burant, S. S. Iyengar, 
 J. Tomasi, M. Cossi, J. M. Millam, M. Klene, C. Adamo, R. Cammi, 
 J. W. Ochterski, R. L. Martin, K. Morokuma, O. Farkas, 
 J. B. Foresman, and D. J. Fox, Gaussian, Inc., Wallingford CT, 2019.
 
 ******************************************
 Gaussian 16:  ES64L-G16RevC.01  3-Jul-2019
                24-Feb-2025 
 ******************************************
 %nprocshared=4
 Will use up to    4 processors via shared memory.
 %mem=16000MB
 -------------------------------------------
 #p wb97xd/def2SVP scf(xqc) scfcyc=999 force
 -------------------------------------------
 1/10=7,30=1,38=1/1,3;
 2/12=2,17=6,18=5,40=1/2;
 3/5=43,7=101,11=2,25=1,30=1,71=1,74=-58/1,2,3;
 4//1;
 5/5=2,7=999,8=3,13=1,38=5/2,8;
 6/7=2,8=2,9=2,10=2,28=1/1;
 7/29=1/1,2,3,16;
 1/10=7,30=1/3;
 99//99;
 Leave Link    1 at Mon Feb 24 16:29:45 2025, MaxMem=  2097152000 cpu:               0.2 elap:               0.1
 (Enter /nvme/h/buildsets/eb_nepheli/software/Gaussian/16.C.01-AVX2/g16/l101.exe)
 -------------
 Template file
 -------------
 Symbolic Z-matrix:
 Charge =  0 Multiplicity = 1
 S                    -2.66392  -0.00003  -0.50847 
 O                    -2.03539  -1.24624  -0.11642 
 O                    -2.03512   1.24612  -0.11666 
 
 ITRead=  0  0  0
 MicOpt= -1 -1 -1
 NAtoms=      3 NQM=        3 NQMF=       0 NMMI=      0 NMMIF=      0
                NMic=       0 NMicF=      0.
                    Isotopes and Nuclear Properties:
 (Nuclear quadrupole moments (NQMom) in fm**2, nuclear magnetic moments (NMagM)
  in nuclear magnetons)

  Atom         1           2           3
 IAtWgt=          32          16          16
 AtmWgt=  31.9720718  15.9949146  15.9949146
 NucSpn=           0           0           0
 AtZEff=  -0.0000000  -0.0000000  -0.0000000
 NQMom=    0.0000000   0.0000000   0.0000000
 NMagM=    0.0000000   0.0000000   0.0000000
 AtZNuc=  16.0000000   8.0000000   8.0000000
 Leave Link  101 at Mon Feb 24 16:29:45 2025, MaxMem=  2097152000 cpu:               0.2 elap:               0.1
 (Enter /nvme/h/buildsets/eb_nepheli/software/Gaussian/16.C.01-AVX2/g16/l103.exe)

 GradGradGradGradGradGradGradGradGradGradGradGradGradGradGradGradGradGrad
 Berny optimization.
 Initialization pass.
 Trust Radius=3.00D-01 FncErr=1.00D-07 GrdErr=1.00D-07 EigMax=2.50D+02 EigMin=1.00D-04
 Number of steps in this run=      2 maximum allowed number of steps=      2.
 GradGradGradGradGradGradGradGradGradGradGradGradGradGradGradGradGradGrad

 Leave Link  103 at Mon Feb 24 16:29:45 2025, MaxMem=  2097152000 cpu:               0.1 elap:               0.0
 (Enter /nvme/h/buildsets/eb_nepheli/software/Gaussian/16.C.01-AVX2/g16/l202.exe)
                          Input orientation:                          
 ---------------------------------------------------------------------
 Center     Atomic      Atomic             Coordinates (Angstroms)
 Number     Number       Type             X           Y           Z
 ---------------------------------------------------------------------
      1         16           0       -2.663921   -0.000032   -0.508472
      2          8           0       -2.035394   -1.246243   -0.116419
      3          8           0       -2.035124    1.246117   -0.116658
 ---------------------------------------------------------------------
                    Distance matrix (angstroms):
                    1          2          3
     1  S    0.000000
     2  O    1.449756   0.000000
     3  O    1.449756   2.492360   0.000000
 Stoichiometry    O2S
 Framework group  C2V[C2(S),SGV(O2)]
 Deg. of freedom     2
 Full point group                 C2V     NOp   4
 Largest Abelian subgroup         C2V     NOp   4
 Largest concise Abelian subgroup C2      NOp   2
                         Standard orientation:                         
 ---------------------------------------------------------------------
 Center     Atomic      Atomic             Coordinates (Angstroms)
 Number     Number       Type             X           Y           Z
 ---------------------------------------------------------------------
      1         16           0        0.000000   -0.000000    0.370415
      2          8           0       -0.000000    1.246180   -0.370414
      3          8           0       -0.000000   -1.246180   -0.370414
 ---------------------------------------------------------------------
 Rotational constants (GHZ):          57.5864065          10.1728704           8.6455918
 Leave Link  202 at Mon Feb 24 16:29:45 2025, MaxMem=  2097152000 cpu:               0.0 elap:               0.0
 (Enter /nvme/h/buildsets/eb_nepheli/software/Gaussian/16.C.01-AVX2/g16/l301.exe)
 Standard basis: def2SVP (5D, 7F)
 Ernie: Thresh=  0.10000D-02 Tol=  0.10000D-05 Strict=F.
 There are    21 symmetry adapted cartesian basis functions of A1  symmetry.
 There are     5 symmetry adapted cartesian basis functions of A2  symmetry.
 There are     8 symmetry adapted cartesian basis functions of B1  symmetry.
 There are    15 symmetry adapted cartesian basis functions of B2  symmetry.
 There are    19 symmetry adapted basis functions of A1  symmetry.
 There are     5 symmetry adapted basis functions of A2  symmetry.
 There are     8 symmetry adapted basis functions of B1  symmetry.
 There are    14 symmetry adapted basis functions of B2  symmetry.
    46 basis functions,    87 primitive gaussians,    49 cartesian basis functions
    16 alpha electrons       16 beta electrons
       nuclear repulsion energy       107.0313235414 Hartrees.
 IExCor= 4639 DFT=T Ex+Corr=wB97XD ExCW=0 ScaHFX=  1.000000
 ScaDFX=  1.000000  1.000000  1.000000  1.000000 ScalE2=  1.000000  1.000000
 IRadAn=      5 IRanWt=     -1 IRanGd=            0 ICorTp=0 IEmpDi=121
 HFx  wShort=  0.000000 wLong=  0.200000 cFull=  0.222036 cShort=  0.000000 cLong=  0.777964
 DFx  wShort=  0.000000 wLong=  0.200000 cFull=  0.000000 cShort=  0.000000 cLong=  1.000000
 NAtoms=    3 NActive=    3 NUniq=    2 SFac= 2.25D+00 NAtFMM=   60 NAOKFM=F Big=F
 Integral buffers will be    131072 words long.
 Raffenetti 2 integral format.
 Two-electron integral symmetry is turned on.
 R6Disp:  Grimme-D2 Dispersion energy=       -0.0000752875 Hartrees.
 Nuclear repulsion after empirical dispersion term =      107.0312482539 Hartrees.
 Leave Link  301 at Mon Feb 24 16:29:45 2025, MaxMem=  2097152000 cpu:               0.1 elap:               0.1
 (Enter /nvme/h/buildsets/eb_nepheli/software/Gaussian/16.C.01-AVX2/g16/l302.exe)
 NPDir=0 NMtPBC=     1 NCelOv=     1 NCel=       1 NClECP=     1 NCelD=      1
         NCelK=      1 NCelE2=     1 NClLst=     1 CellRange=     0.0.
 One-electron integrals computed using PRISM.
 One-electron integral symmetry used in STVInt
   4 Symmetry operations used in ECPInt.
 ECPInt:  NShTT=     210 NPrTT=     952 LenC2=     210 LenP2D=     816.
 LDataN:  DoStor=T MaxTD1= 4 Len=   56
 NBasis=    46 RedAO= T EigKep=  1.79D-02  NBF=    19     5     8    14
 NBsUse=    46 1.00D-06 EigRej= -1.00D+00 NBFU=    19     5     8    14
 Precomputing XC quadrature grid using
 IXCGrd= 4 IRadAn=           5 IRanWt=          -1 IRanGd=           0 AccXCQ= 0.00D+00.
 Generated NRdTot=       0 NPtTot=           0 NUsed=           0 NTot=          32
 NSgBfM=    49    49    49    49    49 MxSgAt=     3 MxSgA2=     3.
 Leave Link  302 at Mon Feb 24 16:29:46 2025, MaxMem=  2097152000 cpu:               0.3 elap:               0.1
 (Enter /nvme/h/buildsets/eb_nepheli/software/Gaussian/16.C.01-AVX2/g16/l303.exe)
 DipDrv:  MaxL=1.
 Leave Link  303 at Mon Feb 24 16:29:46 2025, MaxMem=  2097152000 cpu:               0.1 elap:               0.0
 (Enter /nvme/h/buildsets/eb_nepheli/software/Gaussian/16.C.01-AVX2/g16/l401.exe)
 ExpMin= 1.35D-01 ExpMax= 9.18D+03 ExpMxC= 1.38D+03 IAcc=3 IRadAn=         5 AccDes= 0.00D+00
 Harris functional with IExCor= 4639 and IRadAn=       5 diagonalized for initial guess.
 HarFok:  IExCor= 4639 AccDes= 0.00D+00 IRadAn=         5 IDoV= 1 UseB2=F ITyADJ=14
 ICtDFT=  3500011 ScaDFX=  1.000000  1.000000  1.000000  1.000000
 FoFCou: FMM=F IPFlag=           0 FMFlag=      100000 FMFlg1=           0
         NFxFlg=           0 DoJE=T BraDBF=F KetDBF=T FulRan=T
         wScrn=  0.000000 ICntrl=       500 IOpCl=  0 I1Cent=   200000004 NGrid=           0
         NMat0=    1 NMatS0=      1 NMatT0=    0 NMatD0=    1 NMtDS0=    0 NMtDT0=    0
 Petite list used in FoFCou.
 Harris En= -536.400141961015    
 JPrj=0 DoOrth=F DoCkMO=F.
 Initial guess orbital symmetries:
       Occupied  (A1) (A1) (B2) (A1) (B2) (A1) (B1) (A1) (B2) (A1)
                 (B2) (A1) (B1) (A2) (B2) (A1)
       Virtual   (B1) (A1) (B2) (A1) (A1) (B1) (A2) (B2) (A1) (B1)
                 (A1) (B2) (A2) (A1) (B1) (B2) (A1) (B2) (B2) (A1)
                 (A2) (B2) (B1) (A1) (B2) (B1) (A2) (A1) (A1) (B2)
 The electronic state of the initial guess is 1-A1.
 Leave Link  401 at Mon Feb 24 16:29:46 2025, MaxMem=  2097152000 cpu:               0.5 elap:               0.1
 (Enter /nvme/h/buildsets/eb_nepheli/software/Gaussian/16.C.01-AVX2/g16/l502.exe)
 Keep R1 ints in memory in symmetry-blocked form, NReq=4716203.
 FoFCou: FMM=F IPFlag=           0 FMFlag=           0 FMFlg1=           0
         NFxFlg=           0 DoJE=F BraDBF=F KetDBF=F FulRan=T
         wScrn=  0.000000 ICntrl=       600 IOpCl=  0 I1Cent=           0 NGrid=           0
         NMat0=    1 NMatS0=   1081 NMatT0=    0 NMatD0=    1 NMtDS0=    0 NMtDT0=    0
 Petite list used in FoFCou.
 Closed shell SCF:
 Using DIIS extrapolation, IDIIS=  1040.
 NGot=  2097152000 LenX=  2096989264 LenY=  2096986422
 Requested convergence on RMS density matrix=1.00D-08 within 128 cycles.
 Requested convergence on MAX density matrix=1.00D-06.
 Requested convergence on             energy=1.00D-06.
 No special actions if energy rises.
 Integral accuracy reduced to 1.0D-05 until final iterations.

 Cycle   1  Pass 0  IDiag  1:
 E= -548.148121037815    
 DIIS: error= 8.30D-02 at cycle   1 NSaved=   1.
 NSaved= 1 IEnMin= 1 EnMin= -548.148121037815     IErMin= 1 ErrMin= 8.30D-02
 ErrMax= 8.30D-02  0.00D+00 EMaxC= 1.00D-01 BMatC= 2.57D-01 BMatP= 2.57D-01
 IDIUse=3 WtCom= 1.70D-01 WtEn= 8.30D-01
 Coeff-Com:  0.100D+01
 Coeff-En:   0.100D+01
 Coeff:      0.100D+01
 Gap=     0.324 Goal=   None    Shift=    0.000
 GapD=    0.324 DampG=1.000 DampE=0.500 DampFc=0.5000 IDamp=-1.
 Damping current iteration by 5.00D-01
 RMSDP=1.71D-02 MaxDP=3.62D-01              OVMax= 1.91D-01

 Cycle   2  Pass 0  IDiag  1:
 E= -548.219756673185     Delta-E=       -0.071635635371 Rises=F Damp=T
 DIIS: error= 2.93D-02 at cycle   2 NSaved=   2.
 NSaved= 2 IEnMin= 2 EnMin= -548.219756673185     IErMin= 2 ErrMin= 2.93D-02
 ErrMax= 2.93D-02  0.00D+00 EMaxC= 1.00D-01 BMatC= 3.51D-02 BMatP= 2.57D-01
 IDIUse=3 WtCom= 7.07D-01 WtEn= 2.93D-01
 Coeff-Com: -0.335D+00 0.134D+01
 Coeff-En:   0.000D+00 0.100D+01
 Coeff:     -0.237D+00 0.124D+01
 Gap=     0.371 Goal=   None    Shift=    0.000
 RMSDP=4.89D-03 MaxDP=9.48D-02 DE=-7.16D-02 OVMax= 1.11D-01

 Cycle   3  Pass 0  IDiag  1:
 E= -548.275826732923     Delta-E=       -0.056070059738 Rises=F Damp=F
 DIIS: error= 1.76D-02 at cycle   3 NSaved=   3.
 NSaved= 3 IEnMin= 3 EnMin= -548.275826732923     IErMin= 3 ErrMin= 1.76D-02
 ErrMax= 1.76D-02  0.00D+00 EMaxC= 1.00D-01 BMatC= 1.61D-02 BMatP= 3.51D-02
 IDIUse=3 WtCom= 8.24D-01 WtEn= 1.76D-01
 Coeff-Com: -0.226D+00 0.674D+00 0.552D+00
 Coeff-En:   0.000D+00 0.000D+00 0.100D+01
 Coeff:     -0.186D+00 0.556D+00 0.630D+00
 Gap=     0.354 Goal=   None    Shift=    0.000
 RMSDP=2.25D-03 MaxDP=2.45D-02 DE=-5.61D-02 OVMax= 4.43D-02

 Cycle   4  Pass 0  IDiag  1:
 E= -548.286723395041     Delta-E=       -0.010896662117 Rises=F Damp=F
 DIIS: error= 5.23D-03 at cycle   4 NSaved=   4.
 NSaved= 4 IEnMin= 4 EnMin= -548.286723395041     IErMin= 4 ErrMin= 5.23D-03
 ErrMax= 5.23D-03  0.00D+00 EMaxC= 1.00D-01 BMatC= 1.36D-03 BMatP= 1.61D-02
 IDIUse=3 WtCom= 9.48D-01 WtEn= 5.23D-02
 Coeff-Com: -0.245D-01 0.658D-01 0.251D+00 0.707D+00
 Coeff-En:   0.000D+00 0.000D+00 0.819D-02 0.992D+00
 Coeff:     -0.232D-01 0.624D-01 0.239D+00 0.722D+00
 Gap=     0.356 Goal=   None    Shift=    0.000
 RMSDP=5.91D-04 MaxDP=5.96D-03 DE=-1.09D-02 OVMax= 7.86D-03

 Cycle   5  Pass 0  IDiag  1:
 E= -548.287684299896     Delta-E=       -0.000960904855 Rises=F Damp=F
 DIIS: error= 3.98D-04 at cycle   5 NSaved=   5.
 NSaved= 5 IEnMin= 5 EnMin= -548.287684299896     IErMin= 5 ErrMin= 3.98D-04
 ErrMax= 3.98D-04  0.00D+00 EMaxC= 1.00D-01 BMatC= 5.23D-06 BMatP= 1.36D-03
 IDIUse=3 WtCom= 9.96D-01 WtEn= 3.98D-03
 Coeff-Com:  0.375D-02-0.114D-01-0.264D-01-0.517D-02 0.104D+01
 Coeff-En:   0.000D+00 0.000D+00 0.000D+00 0.000D+00 0.100D+01
 Coeff:      0.373D-02-0.113D-01-0.263D-01-0.515D-02 0.104D+01
 Gap=     0.356 Goal=   None    Shift=    0.000
 RMSDP=8.72D-05 MaxDP=1.72D-03 DE=-9.61D-04 OVMax= 1.61D-03

 Cycle   6  Pass 0  IDiag  1:
 E= -548.287691685502     Delta-E=       -0.000007385606 Rises=F Damp=F
 DIIS: error= 5.41D-05 at cycle   6 NSaved=   6.
 NSaved= 6 IEnMin= 6 EnMin= -548.287691685502     IErMin= 6 ErrMin= 5.41D-05
 ErrMax= 5.41D-05  0.00D+00 EMaxC= 1.00D-01 BMatC= 1.64D-07 BMatP= 5.23D-06
 IDIUse=1 WtCom= 1.00D+00 WtEn= 0.00D+00
 Coeff-Com:  0.112D-02-0.230D-02-0.942D-02-0.393D-01-0.112D+00 0.116D+01
 Coeff:      0.112D-02-0.230D-02-0.942D-02-0.393D-01-0.112D+00 0.116D+01
 Gap=     0.357 Goal=   None    Shift=    0.000
 RMSDP=2.89D-05 MaxDP=3.89D-04 DE=-7.39D-06 OVMax= 3.70D-04

 Cycle   7  Pass 0  IDiag  1:
 E= -548.287692120720     Delta-E=       -0.000000435218 Rises=F Damp=F
 DIIS: error= 1.04D-05 at cycle   7 NSaved=   7.
 NSaved= 7 IEnMin= 7 EnMin= -548.287692120720     IErMin= 7 ErrMin= 1.04D-05
 ErrMax= 1.04D-05  0.00D+00 EMaxC= 1.00D-01 BMatC= 3.28D-09 BMatP= 1.64D-07
 IDIUse=1 WtCom= 1.00D+00 WtEn= 0.00D+00
 Coeff-Com: -0.146D-03 0.420D-03 0.744D-03-0.759D-03-0.432D-01 0.159D-01
 Coeff-Com:  0.103D+01
 Coeff:     -0.146D-03 0.420D-03 0.744D-03-0.759D-03-0.432D-01 0.159D-01
 Coeff:      0.103D+01
 Gap=     0.357 Goal=   None    Shift=    0.000
 RMSDP=4.46D-06 MaxDP=4.43D-05 DE=-4.35D-07 OVMax= 6.03D-05

 Initial convergence to 1.0D-05 achieved.  Increase integral accuracy.
 Cycle   8  Pass 1  IDiag  1:
 E= -548.287690670563     Delta-E=        0.000001450157 Rises=F Damp=F
 DIIS: error= 5.17D-05 at cycle   1 NSaved=   1.
 NSaved= 1 IEnMin= 1 EnMin= -548.287690670563     IErMin= 1 ErrMin= 5.17D-05
 ErrMax= 5.17D-05  0.00D+00 EMaxC= 1.00D-01 BMatC= 1.56D-07 BMatP= 1.56D-07
 IDIUse=1 WtCom= 1.00D+00 WtEn= 0.00D+00
 Coeff-Com:  0.100D+01
 Coeff:      0.100D+01
 Gap=     0.357 Goal=   None    Shift=    0.000
 RMSDP=4.46D-06 MaxDP=4.43D-05 DE= 1.45D-06 OVMax= 8.53D-05

 Cycle   9  Pass 1  IDiag  1:
 E= -548.287690779356     Delta-E=       -0.000000108794 Rises=F Damp=F
 DIIS: error= 1.57D-05 at cycle   2 NSaved=   2.
 NSaved= 2 IEnMin= 2 EnMin= -548.287690779356     IErMin= 2 ErrMin= 1.57D-05
 ErrMax= 1.57D-05  0.00D+00 EMaxC= 1.00D-01 BMatC= 9.24D-09 BMatP= 1.56D-07
 IDIUse=1 WtCom= 1.00D+00 WtEn= 0.00D+00
 Coeff-Com:  0.726D-01 0.927D+00
 Coeff:      0.726D-01 0.927D+00
 Gap=     0.357 Goal=   None    Shift=    0.000
 RMSDP=3.48D-06 MaxDP=6.86D-05 DE=-1.09D-07 OVMax= 6.65D-05

 Cycle  10  Pass 1  IDiag  1:
 E= -548.287690780689     Delta-E=       -0.000000001333 Rises=F Damp=F
 DIIS: error= 1.23D-05 at cycle   3 NSaved=   3.
 NSaved= 3 IEnMin= 3 EnMin= -548.287690780689     IErMin= 3 ErrMin= 1.23D-05
 ErrMax= 1.23D-05  0.00D+00 EMaxC= 1.00D-01 BMatC= 1.08D-08 BMatP= 9.24D-09
 IDIUse=1 WtCom= 1.00D+00 WtEn= 0.00D+00
 Coeff-Com: -0.344D-01 0.522D+00 0.513D+00
 Coeff:     -0.344D-01 0.522D+00 0.513D+00
 Gap=     0.357 Goal=   None    Shift=    0.000
 RMSDP=1.72D-06 MaxDP=2.31D-05 DE=-1.33D-09 OVMax= 2.74D-05

 Cycle  11  Pass 1  IDiag  1:
 E= -548.287690788530     Delta-E=       -0.000000007840 Rises=F Damp=F
 DIIS: error= 1.73D-06 at cycle   4 NSaved=   4.
 NSaved= 4 IEnMin= 4 EnMin= -548.287690788530     IErMin= 4 ErrMin= 1.73D-06
 ErrMax= 1.73D-06  0.00D+00 EMaxC= 1.00D-01 BMatC= 1.60D-10 BMatP= 9.24D-09
 IDIUse=1 WtCom= 1.00D+00 WtEn= 0.00D+00
 Coeff-Com: -0.165D-01 0.103D+00 0.154D+00 0.759D+00
 Coeff:     -0.165D-01 0.103D+00 0.154D+00 0.759D+00
 Gap=     0.357 Goal=   None    Shift=    0.000
 RMSDP=2.77D-07 MaxDP=2.75D-06 DE=-7.84D-09 OVMax= 4.10D-06

 Cycle  12  Pass 1  IDiag  1:
 E= -548.287690788671     Delta-E=       -0.000000000141 Rises=F Damp=F
 DIIS: error= 2.52D-07 at cycle   5 NSaved=   5.
 NSaved= 5 IEnMin= 5 EnMin= -548.287690788671     IErMin= 5 ErrMin= 2.52D-07
 ErrMax= 2.52D-07  0.00D+00 EMaxC= 1.00D-01 BMatC= 3.77D-12 BMatP= 1.60D-10
 IDIUse=1 WtCom= 1.00D+00 WtEn= 0.00D+00
 Coeff-Com:  0.171D-02-0.265D-01-0.316D-01 0.130D-01 0.104D+01
 Coeff:      0.171D-02-0.265D-01-0.316D-01 0.130D-01 0.104D+01
 Gap=     0.357 Goal=   None    Shift=    0.000
 RMSDP=1.25D-07 MaxDP=2.53D-06 DE=-1.41D-10 OVMax= 1.22D-06

 Cycle  13  Pass 1  IDiag  1:
 E= -548.287690788677     Delta-E=       -0.000000000006 Rises=F Damp=F
 DIIS: error= 4.62D-08 at cycle   6 NSaved=   6.
 NSaved= 6 IEnMin= 6 EnMin= -548.287690788677     IErMin= 6 ErrMin= 4.62D-08
 ErrMax= 4.62D-08  0.00D+00 EMaxC= 1.00D-01 BMatC= 1.20D-13 BMatP= 3.77D-12
 IDIUse=1 WtCom= 1.00D+00 WtEn= 0.00D+00
 Coeff-Com:  0.231D-03 0.137D-03-0.297D-02-0.163D-01-0.108D+00 0.113D+01
 Coeff:      0.231D-03 0.137D-03-0.297D-02-0.163D-01-0.108D+00 0.113D+01
 Gap=     0.357 Goal=   None    Shift=    0.000
 RMSDP=2.54D-08 MaxDP=4.49D-07 DE=-6.37D-12 OVMax= 2.63D-07

 Cycle  14  Pass 1  IDiag  1:
 E= -548.287690788678     Delta-E=       -0.000000000001 Rises=F Damp=F
 DIIS: error= 7.75D-09 at cycle   7 NSaved=   7.
 NSaved= 7 IEnMin= 7 EnMin= -548.287690788678     IErMin= 7 ErrMin= 7.75D-09
 ErrMax= 7.75D-09  0.00D+00 EMaxC= 1.00D-01 BMatC= 1.99D-15 BMatP= 1.20D-13
 IDIUse=1 WtCom= 1.00D+00 WtEn= 0.00D+00
 Coeff-Com: -0.765D-04 0.766D-03 0.139D-02 0.251D-02-0.191D-01-0.152D+00
 Coeff-Com:  0.117D+01
 Coeff:     -0.765D-04 0.766D-03 0.139D-02 0.251D-02-0.191D-01-0.152D+00
 Coeff:      0.117D+01
 Gap=     0.357 Goal=   None    Shift=    0.000
 RMSDP=4.14D-09 MaxDP=6.46D-08 DE=-1.14D-12 OVMax= 5.67D-08

 SCF Done:  E(RwB97XD) =  -548.287690789     A.U. after   14 cycles
            NFock= 14  Conv=0.41D-08     -V/T= 2.0031
 KE= 5.465729362138D+02 PE=-1.514376265034D+03 EE= 3.124843897777D+02
 Leave Link  502 at Mon Feb 24 16:29:47 2025, MaxMem=  2097152000 cpu:               1.9 elap:               0.5
 (Enter /nvme/h/buildsets/eb_nepheli/software/Gaussian/16.C.01-AVX2/g16/l508.exe)
 QCSCF skips out because SCF is already converged.
 Leave Link  508 at Mon Feb 24 16:29:47 2025, MaxMem=  2097152000 cpu:               0.0 elap:               0.0
 (Enter /nvme/h/buildsets/eb_nepheli/software/Gaussian/16.C.01-AVX2/g16/l601.exe)
 Copying SCF densities to generalized density rwf, IOpCl= 0 IROHF=0.

 **********************************************************************

            Population analysis using the SCF Density.

 **********************************************************************

 Orbital symmetries:
       Occupied  (A1) (A1) (B2) (A1) (B2) (B1) (A1) (A1) (B2) (A1)
                 (B1) (A1) (B2) (A2) (B2) (A1)
       Virtual   (B1) (A1) (B2) (A1) (B1) (A1) (A2) (B2) (B1) (A1)
                 (A1) (B2) (A2) (A1) (B1) (B2) (A1) (B2) (B2) (A1)
                 (A2) (B2) (B1) (A1) (B2) (B1) (A2) (A1) (A1) (B2)
 The electronic state is 1-A1.
 Alpha  occ. eigenvalues --  -89.20756 -19.31116 -19.31115  -8.24291  -6.19595
 Alpha  occ. eigenvalues --   -6.19545  -6.19007  -1.24287  -1.14203  -0.72725
 Alpha  occ. eigenvalues --   -0.58660  -0.58440  -0.57761  -0.45266  -0.44113
 Alpha  occ. eigenvalues --   -0.41470
 Alpha virt. eigenvalues --   -0.05819   0.14420   0.16983   0.37376   0.62628
 Alpha virt. eigenvalues --    0.63819   0.70024   0.71353   0.72934   0.74987
 Alpha virt. eigenvalues --    0.88112   0.91066   1.03083   1.03306   1.09142
 Alpha virt. eigenvalues --    1.10118   1.12977   1.23841   1.32877   1.36669
 Alpha virt. eigenvalues --    2.64788   2.65004   2.65421   2.66987   2.70501
 Alpha virt. eigenvalues --    2.78958   2.85493   2.99060   3.31454   3.43591
          Condensed to atoms (all electrons):
               1          2          3
     1  S   14.597469   0.316845   0.316845
     2  O    0.316845   8.106695  -0.039119
     3  O    0.316845  -0.039119   8.106695
 Mulliken charges:
               1
     1  S    0.768842
     2  O   -0.384421
     3  O   -0.384421
 Sum of Mulliken charges =   0.00000
 Mulliken charges with hydrogens summed into heavy atoms:
               1
     1  S    0.768842
     2  O   -0.384421
     3  O   -0.384421
 Electronic spatial extent (au):  <R**2>=            156.4577
 Charge=              0.0000 electrons
 Dipole moment (field-independent basis, Debye):
    X=              0.0000    Y=             -0.0000    Z=              1.8727  Tot=              1.8727
 Quadrupole moment (field-independent basis, Debye-Ang):
   XX=            -20.4408   YY=            -27.0949   ZZ=            -22.4689
   XY=             -0.0000   XZ=             -0.0000   YZ=             -0.0000
 Traceless Quadrupole moment (field-independent basis, Debye-Ang):
   XX=              2.8941   YY=             -3.7600   ZZ=              0.8659
   XY=             -0.0000   XZ=             -0.0000   YZ=             -0.0000
 Octapole moment (field-independent basis, Debye-Ang**2):
  XXX=              0.0000  YYY=              0.0000  ZZZ=             -0.8509  XYY=              0.0000
  XXY=             -0.0000  XXZ=             -0.1780  XZZ=              0.0000  YZZ=              0.0000
  YYZ=              2.2141  XYZ=              0.0000
 Hexadecapole moment (field-independent basis, Debye-Ang**3):
 XXXX=            -17.4607 YYYY=           -128.2087 ZZZZ=            -39.5573 XXXY=             -0.0000
 XXXZ=             -0.0000 YYYX=             -0.0000 YYYZ=             -0.0000 ZZZX=             -0.0000
 ZZZY=              0.0000 XXYY=            -22.3687 XXZZ=             -9.2760 YYZZ=            -26.8278
 XXYZ=              0.0000 YYXZ=             -0.0000 ZZXY=             -0.0000
 N-N= 1.070312482539D+02 E-N=-1.514376265135D+03  KE= 5.465729362138D+02
 Symmetry A1   KE= 3.935451700859D+02
 Symmetry A2   KE= 4.588559758127D+00
 Symmetry B1   KE= 3.903629404864D+01
 Symmetry B2   KE= 1.094029123211D+02
 No NMR shielding tensors so no spin-rotation constants.
 Leave Link  601 at Mon Feb 24 16:29:47 2025, MaxMem=  2097152000 cpu:               0.3 elap:               0.1
 (Enter /nvme/h/buildsets/eb_nepheli/software/Gaussian/16.C.01-AVX2/g16/l701.exe)
 ... and contract with generalized density number  0.
 Compute integral first derivatives.
 R6Disp: Adding Grimme-D2 dispersion energy 1st derivatives to the gradient.
   4 Symmetry operations used in ECPInt.
 ECPInt:  NShTT=     210 NPrTT=     952 LenC2=     210 LenP2D=     816.
 LDataN:  DoStor=T MaxTD1= 5 Len=  102
 Leave Link  701 at Mon Feb 24 16:29:47 2025, MaxMem=  2097152000 cpu:               0.3 elap:               0.1
 (Enter /nvme/h/buildsets/eb_nepheli/software/Gaussian/16.C.01-AVX2/g16/l702.exe)
 L702 exits ... SP integral derivatives will be done elsewhere.
 Leave Link  702 at Mon Feb 24 16:29:47 2025, MaxMem=  2097152000 cpu:               0.0 elap:               0.0
 (Enter /nvme/h/buildsets/eb_nepheli/software/Gaussian/16.C.01-AVX2/g16/l703.exe)
 Integral derivatives from FoFJK, PRISM(SPDF).
 Compute integral first derivatives, UseDBF=F ICtDFT=           0.
 Calling FoFJK, ICntrl=      2127 FMM=F ISym2X=1 I1Cent= 0 IOpClX= 0 NMat=1 NMatS=1 NMatT=0.
 FoFJK:  IHMeth= 1 ICntrl=    2127 DoSepK=T KAlg= 0 I1Cent=           0 FoldK=F
 IRaf=         1 NMat=       1 IRICut=       1 DoRegI=T DoRafI=F ISym2E= 1 IDoP0=0 IntGTp=1.
 FoFCou: FMM=F IPFlag=           0 FMFlag=      100000 FMFlg1=         800
         NFxFlg=           0 DoJE=F BraDBF=F KetDBF=F FulRan=T
         wScrn=  0.000000 ICntrl=      2527 IOpCl=  0 I1Cent=           0 NGrid=           0
         NMat0=    1 NMatS0=      1 NMatT0=    0 NMatD0=    1 NMtDS0=    0 NMtDT0=    0
 Petite list used in FoFCou.
 Leave Link  703 at Mon Feb 24 16:29:48 2025, MaxMem=  2097152000 cpu:               1.1 elap:               0.3
 (Enter /nvme/h/buildsets/eb_nepheli/software/Gaussian/16.C.01-AVX2/g16/l716.exe)
 Dipole        = 1.92914860D-16 0.00000000D+00 7.36794992D-01
 ***** Axes restored to original set *****
 -------------------------------------------------------------------
 Center     Atomic                   Forces (Hartrees/Bohr)
 Number     Number              X              Y              Z
 -------------------------------------------------------------------
      1       16           0.000003270   -0.000000000    0.000002038
      2        8          -0.000001634    0.000004456   -0.000001020
      3        8          -0.000001635   -0.000004456   -0.000001019
 -------------------------------------------------------------------
 Cartesian Forces:  Max     0.000004456 RMS     0.000002624
 Z-matrix is all fixed cartesians, so copy forces.
 Force constants in Cartesian coordinates: 
                1             2             3             4             5 
      1  0.711994D+00
      2  0.593148D-04  0.141936D+01
      3 -0.179554D+00 -0.315569D-04  0.888058D+00
      4 -0.215977D+00  0.357946D+00 -0.134707D+00  0.478145D+00
      5  0.333115D+00 -0.709713D+00  0.207794D+00 -0.345602D+00  0.718410D+00
      6 -0.134703D+00  0.223274D+00 -0.840160D-01 -0.325289D+00 -0.215417D+00
      7 -0.216127D+00 -0.358079D+00 -0.134684D+00  0.177224D-01  0.124136D-01
      8 -0.333248D+00 -0.709646D+00 -0.207644D+00 -0.124172D-01 -0.869758D-02
      9 -0.134688D+00 -0.223125D+00 -0.839333D-01  0.110509D-01  0.774056D-02
                6             7             8             9 
      6  0.797237D+00
      7  0.110468D-01  0.478295D+00
      8 -0.773996D-02  0.345592D+00  0.718343D+00
      9  0.688831D-02 -0.325309D+00  0.215502D+00  0.797154D+00
 Leave Link  716 at Mon Feb 24 16:29:48 2025, MaxMem=  2097152000 cpu:               0.1 elap:               0.0
 (Enter /nvme/h/buildsets/eb_nepheli/software/Gaussian/16.C.01-AVX2/g16/l103.exe)

 GradGradGradGradGradGradGradGradGradGradGradGradGradGradGradGradGradGrad
 Berny optimization.
 Search for a local minimum.
 Step number   1 out of a maximum of    2
 All quantities printed in internal units (Hartrees-Bohrs-Radians)
 Second derivative matrix not updated -- first step.
 The second derivative matrix:
                          X1        Y1        Z1        X2        Y2
           X1           0.71199
           Y1           0.00006   1.41936
           Z1          -0.17955  -0.00003   0.88806
           X2          -0.21598   0.35795  -0.13471   0.47815
           Y2           0.33312  -0.70971   0.20779  -0.34560   0.71841
           Z2          -0.13470   0.22327  -0.08402  -0.32529  -0.21542
           X3          -0.21613  -0.35808  -0.13468   0.01772   0.01241
           Y3          -0.33325  -0.70965  -0.20764  -0.01242  -0.00870
           Z3          -0.13469  -0.22312  -0.08393   0.01105   0.00774
                          Z2        X3        Y3        Z3
           Z2           0.79724
           X3           0.01105   0.47829
           Y3          -0.00774   0.34559   0.71834
           Z3           0.00689  -0.32531   0.21550   0.79715
 ITU=  0
     Eigenvalues ---    0.12642   1.47500   2.30982
 Angle between quadratic step and forces=  56.02 degrees.
 ClnCor:  largest displacement from symmetrization is 2.58D-14 for atom     3.
 Linear search not attempted -- first point.
 ClnCor:  largest displacement from symmetrization is 8.88D-16 for atom     3.
 B after Tr=    -0.000000    0.000000   -0.000000
         Rot=    1.000000    0.000000    0.000000    0.000000 Ang=   0.00 deg.
 Variable       Old X    -DE/DX   Delta X   Delta X   Delta X     New X
                                 (Linear)    (Quad)   (Total)
    X1       -5.03408   0.00000   0.00000  -0.00000  -0.00000  -5.03408
    Y1       -0.00006  -0.00000   0.00000   0.00000   0.00000  -0.00006
    Z1       -0.96087   0.00000   0.00000  -0.00000  -0.00000  -0.96087
    X2       -3.84634  -0.00000   0.00000   0.00000   0.00000  -3.84634
    Y2       -2.35506   0.00000   0.00000   0.00001   0.00001  -2.35505
    Z2       -0.22000  -0.00000   0.00000   0.00000   0.00000  -0.22000
    X3       -3.84583  -0.00000   0.00000   0.00000   0.00000  -3.84583
    Y3        2.35482  -0.00000   0.00000  -0.00001  -0.00001   2.35481
    Z3       -0.22045  -0.00000   0.00000   0.00000   0.00000  -0.22045
         Item               Value     Threshold  Converged?
 Maximum Force            0.000004     0.000450     YES
 RMS     Force            0.000003     0.000300     YES
 Maximum Displacement     0.000009     0.001800     YES
 RMS     Displacement     0.000005     0.001200     YES
 Predicted change in Energy=-2.992696D-11
 Optimization completed.
    -- Stationary point found.
 GradGradGradGradGradGradGradGradGradGradGradGradGradGradGradGradGradGrad

 Leave Link  103 at Mon Feb 24 16:29:48 2025, MaxMem=  2097152000 cpu:               0.1 elap:               0.0
 (Enter /nvme/h/buildsets/eb_nepheli/software/Gaussian/16.C.01-AVX2/g16/l9999.exe)
 Unable to Open any file for archive entry.
 1\1\GINC-NE27\Force\RwB97XD\def2SVP\O2S1\NPATSALIDIS\24-Feb-2025\0\\#p
  wb97xd/def2SVP scf(xqc) scfcyc=999 force\\Template file\\0,1\S,-2.663
 921,-0.0000322916,-0.508472\O,-2.035394,-1.246243,-0.116419\O,-2.03512
 42941,1.2461175831,-0.1166581835\\Version=ES64L-G16RevC.01\State=1-A1\
 HF=-548.2876908\RMSD=4.144e-09\RMSF=2.624e-06\Dipole=-0.6252387,0.0000
 303,-0.3897993\Quadrupole=1.065851,-2.7955043,1.7296533,-0.0004828,-0.
 6769617,0.0005075\PG=C02V [C2(S1),SGV(O2)]\\@
 The archive entry for this job was punched.


 "MATHEMATICS IS THE ART OF GIVING THE SAME NAME
 TO DIFFERENT THINGS."
                    - H. POINCARE
 Job cpu time:       0 days  0 hours  0 minutes  5.8 seconds.
 Elapsed time:       0 days  0 hours  0 minutes  1.8 seconds.
 File lengths (MBytes):  RWF=     10 Int=      0 D2E=      0 Chk=      1 Scr=      1
 Normal termination of Gaussian 16 at Mon Feb 24 16:29:48 2025.
