# generated from FF_develop kind of dataframes
# created within AL scheme step by Nikolaos Patsalidis [ EDFT = -99.410490, Upred =-99.192429 ]  
4 atoms

1 atom types

0.00 148.53 xlo xhi
0.00 126.45 ylo yhi
0.00 100.37 zlo zhi



Masses

1 107.868200


Atoms

1  1  1  0.000000   7.4245653000000004e+01   6.1905566749999998e+01   5.0203815999999996e+01   
2  2  1  0.000000   7.1826009999999997e+01   6.3240553749999997e+01   5.0167144999999998e+01   
3  3  1  0.000000   7.4312196000000000e+01   6.4550614749999994e+01   5.0203650999999994e+01   
4  4  1  0.000000   7.6679160999999993e+01   6.3204224750000002e+01   5.0166747999999998e+01   
