# generated from FF_develop kind of dataframes
# created within AL scheme step by Nikolaos Patsalidis [ EDFT = 0.144010, Upred =0.268846 ]  
3 atoms
2 bonds
1 angles

2 atom types
1 bond types
1 angle types

0.00 100.06 xlo xhi
0.00 121.85 ylo yhi
0.00 104.47 zlo zhi



Masses

