# generated from FF_develop kind of dataframes
# created within AL scheme step by Nikolaos Patsalidis [ EDFT = 65.845498, Upred =-48.923131 ]  
3 atoms
2 bonds
1 angles

2 atom types
1 bond types
1 angle types

0.00 119.57 xlo xhi
0.00 108.88 ylo yhi
0.00 100.00 zlo zhi



Masses

