 Entering Gaussian System, Link 0=g16
 Initial command:
 /nvme/h/buildsets/eb_nepheli/software/Gaussian/16.C.01-AVX2/g16/l1.exe "/onyx/data/simea/nikolas/postDoc/Active-Learning-Package/Ag-mainy/init_data/Ag8/Gau-78894.inp" -scrdir="/onyx/data/simea/nikolas/postDoc/Active-Learning-Package/Ag-mainy/init_data/Ag8/"
 Entering Link 1 = /nvme/h/buildsets/eb_nepheli/software/Gaussian/16.C.01-AVX2/g16/l1.exe PID=     78895.
  
 Copyright (c) 1988-2019, Gaussian, Inc.  All Rights Reserved.
  
 This is part of the Gaussian(R) 16 program.  It is based on
 the Gaussian(R) 09 system (copyright 2009, Gaussian, Inc.),
 the Gaussian(R) 03 system (copyright 2003, Gaussian, Inc.),
 the Gaussian(R) 98 system (copyright 1998, Gaussian, Inc.),
 the Gaussian(R) 94 system (copyright 1995, Gaussian, Inc.),
 the Gaussian 92(TM) system (copyright 1992, Gaussian, Inc.),
 the Gaussian 90(TM) system (copyright 1990, Gaussian, Inc.),
 the Gaussian 88(TM) system (copyright 1988, Gaussian, Inc.),
 the Gaussian 86(TM) system (copyright 1986, Carnegie Mellon
 University), and the Gaussian 82(TM) system (copyright 1983,
 Carnegie Mellon University). Gaussian is a federally registered
 trademark of Gaussian, Inc.
  
 This software contains proprietary and confidential information,
 including trade secrets, belonging to Gaussian, Inc.
  
 This software is provided under written license and may be
 used, copied, transmitted, or stored only in accord with that
 written license.
  
 The following legend is applicable only to US Government
 contracts under FAR:
  
                    RESTRICTED RIGHTS LEGEND
  
 Use, reproduction and disclosure by the US Government is
 subject to restrictions as set forth in subparagraphs (a)
 and (c) of the Commercial Computer Software - Restricted
 Rights clause in FAR 52.227-19.
  
 Gaussian, Inc.
 340 Quinnipiac St., Bldg. 40, Wallingford CT 06492
  
  
 ---------------------------------------------------------------
 Warning -- This program may not be used in any manner that
 competes with the business of Gaussian, Inc. or will provide
 assistance to any competitor of Gaussian, Inc.  The licensee
 of this program is prohibited from giving any competitor of
 Gaussian, Inc. access to this program.  By using this program,
 the user acknowledges that Gaussian, Inc. is engaged in the
 business of creating and licensing software in the field of
 computational chemistry and represents and warrants to the
 licensee that it is not a competitor of Gaussian, Inc. and that
 it will not use this program in any manner prohibited above.
 ---------------------------------------------------------------
  

 Cite this work as:
 Gaussian 16, Revision C.01,
 M. J. Frisch, G. W. Trucks, H. B. Schlegel, G. E. Scuseria, 
 M. A. Robb, J. R. Cheeseman, G. Scalmani, V. Barone, 
 G. A. Petersson, H. Nakatsuji, X. Li, M. Caricato, A. V. Marenich, 
 J. Bloino, B. G. Janesko, R. Gomperts, B. Mennucci, H. P. Hratchian, 
 J. V. Ortiz, A. F. Izmaylov, J. L. Sonnenberg, D. Williams-Young, 
 F. Ding, F. Lipparini, F. Egidi, J. Goings, B. Peng, A. Petrone, 
 T. Henderson, D. Ranasinghe, V. G. Zakrzewski, J. Gao, N. Rega, 
 G. Zheng, W. Liang, M. Hada, M. Ehara, K. Toyota, R. Fukuda, 
 J. Hasegawa, M. Ishida, T. Nakajima, Y. Honda, O. Kitao, H. Nakai, 
 T. Vreven, K. Throssell, J. A. Montgomery, Jr., J. E. Peralta, 
 F. Ogliaro, M. J. Bearpark, J. J. Heyd, E. N. Brothers, K. N. Kudin, 
 V. N. Staroverov, T. A. Keith, R. Kobayashi, J. Normand, 
 K. Raghavachari, A. P. Rendell, J. C. Burant, S. S. Iyengar, 
 J. Tomasi, M. Cossi, J. M. Millam, M. Klene, C. Adamo, R. Cammi, 
 J. W. Ochterski, R. L. Martin, K. Morokuma, O. Farkas, 
 J. B. Foresman, and D. J. Fox, Gaussian, Inc., Wallingford CT, 2019.
 
 ******************************************
 Gaussian 16:  ES64L-G16RevC.01  3-Jul-2019
                26-Feb-2025 
 ******************************************
 %nprocshared=4
 Will use up to    4 processors via shared memory.
 %mem=16000MB
 -------------------------------------------
 #p wb97xd/def2SVP scf(xqc) scfcyc=999 force
 -------------------------------------------
 1/10=7,30=1,38=1/1,3;
 2/12=2,17=6,18=5,40=1/2;
 3/5=43,7=101,11=2,25=1,30=1,71=1,74=-58/1,2,3;
 4//1;
 5/5=2,7=999,8=3,13=1,38=5/2,8;
 6/7=2,8=2,9=2,10=2,28=1/1;
 7/29=1/1,2,3,16;
 1/10=7,30=1/3;
 99//99;
 Leave Link    1 at Wed Feb 26 11:58:38 2025, MaxMem=  2097152000 cpu:               0.2 elap:               0.1
 (Enter /nvme/h/buildsets/eb_nepheli/software/Gaussian/16.C.01-AVX2/g16/l101.exe)
 -------------
 Template file
 -------------
 Symbolic Z-matrix:
 Charge =  0 Multiplicity = 1
 Ag                    1.06839   1.06839   2.13643 
 Ag                   -1.31851   1.31851   0.60102 
 Ag                   -1.31851  -1.31851  -0.60102 
 Ag                    1.31851  -1.31851   0.60102 
 Ag                   -1.06839  -1.06839   2.13643 
 Ag                   -1.06839   1.06839  -2.13643 
 Ag                    1.31851   1.31851  -0.60102 
 Ag                    1.06839  -1.06839  -2.13643 
 
 ITRead=  0  0  0  0  0  0  0  0
 MicOpt= -1 -1 -1 -1 -1 -1 -1 -1
 NAtoms=      8 NQM=        8 NQMF=       0 NMMI=      0 NMMIF=      0
                NMic=       0 NMicF=      0.
                    Isotopes and Nuclear Properties:
 (Nuclear quadrupole moments (NQMom) in fm**2, nuclear magnetic moments (NMagM)
  in nuclear magnetons)

  Atom         1           2           3           4           5           6           7           8
 IAtWgt=         107         107         107         107         107         107         107         107
 AtmWgt= 106.9050900 106.9050900 106.9050900 106.9050900 106.9050900 106.9050900 106.9050900 106.9050900
 NucSpn=           1           1           1           1           1           1           1           1
 AtZEff=  -0.0000000  -0.0000000  -0.0000000  -0.0000000  -0.0000000  -0.0000000  -0.0000000  -0.0000000
 NQMom=    0.0000000   0.0000000   0.0000000   0.0000000   0.0000000   0.0000000   0.0000000   0.0000000
 NMagM=   -0.1135700  -0.1135700  -0.1135700  -0.1135700  -0.1135700  -0.1135700  -0.1135700  -0.1135700
 AtZNuc=  47.0000000  47.0000000  47.0000000  47.0000000  47.0000000  47.0000000  47.0000000  47.0000000
 Leave Link  101 at Wed Feb 26 11:58:38 2025, MaxMem=  2097152000 cpu:               0.1 elap:               0.1
 (Enter /nvme/h/buildsets/eb_nepheli/software/Gaussian/16.C.01-AVX2/g16/l103.exe)

 GradGradGradGradGradGradGradGradGradGradGradGradGradGradGradGradGradGrad
 Berny optimization.
 Initialization pass.
 Trust Radius=3.00D-01 FncErr=1.00D-07 GrdErr=1.00D-07 EigMax=2.50D+02 EigMin=1.00D-04
 Number of steps in this run=      2 maximum allowed number of steps=      2.
 GradGradGradGradGradGradGradGradGradGradGradGradGradGradGradGradGradGrad

 Leave Link  103 at Wed Feb 26 11:58:38 2025, MaxMem=  2097152000 cpu:               0.0 elap:               0.0
 (Enter /nvme/h/buildsets/eb_nepheli/software/Gaussian/16.C.01-AVX2/g16/l202.exe)
                          Input orientation:                          
 ---------------------------------------------------------------------
 Center     Atomic      Atomic             Coordinates (Angstroms)
 Number     Number       Type             X           Y           Z
 ---------------------------------------------------------------------
      1         47           0        1.068394    1.068394    2.136427
      2         47           0       -1.318511    1.318511    0.601020
      3         47           0       -1.318511   -1.318511   -0.601020
      4         47           0        1.318511   -1.318511    0.601020
      5         47           0       -1.068394   -1.068394    2.136427
      6         47           0       -1.068394    1.068394   -2.136427
      7         47           0        1.318511    1.318511   -0.601020
      8         47           0        1.068394   -1.068394   -2.136427
 ---------------------------------------------------------------------
                    Distance matrix (angstroms):
                    1          2          3          4          5
     1  Ag   0.000000
     2  Ag   2.849096   0.000000
     3  Ag   4.346061   2.898066   0.000000
     4  Ag   2.849096   3.729312   2.898066   0.000000
     5  Ag   3.021875   2.849096   2.760205   2.849096   0.000000
     6  Ag   4.777357   2.760205   2.849096   4.346061   4.777357
     7  Ag   2.760205   2.898066   3.729312   2.898066   4.346061
     8  Ag   4.777357   4.346061   2.849096   2.760205   4.777357
                    6          7          8
     6  Ag   0.000000
     7  Ag   2.849096   0.000000
     8  Ag   3.021875   2.849096   0.000000
 Stoichiometry    Ag8
 Framework group  D2D[2SGD(Ag4)]
 Deg. of freedom     4
 Full point group                 D2D     NOp   8
 Largest Abelian subgroup         C2V     NOp   4
 Largest concise Abelian subgroup C2V     NOp   4
                         Standard orientation:                         
 ---------------------------------------------------------------------
 Center     Atomic      Atomic             Coordinates (Angstroms)
 Number     Number       Type             X           Y           Z
 ---------------------------------------------------------------------
      1         47           0        1.510937   -0.000000    2.136427
      2         47           0        0.000000    1.864656    0.601020
      3         47           0       -1.864656    0.000000   -0.601020
      4         47           0       -0.000000   -1.864656    0.601020
      5         47           0       -1.510937   -0.000000    2.136427
      6         47           0        0.000000    1.510937   -2.136427
      7         47           0        1.864656   -0.000000   -0.601020
      8         47           0        0.000000   -1.510937   -2.136427
 ---------------------------------------------------------------------
 Rotational constants (GHZ):           0.2051851           0.1514116           0.1514116
 Leave Link  202 at Wed Feb 26 11:58:38 2025, MaxMem=  2097152000 cpu:               0.0 elap:               0.0
 (Enter /nvme/h/buildsets/eb_nepheli/software/Gaussian/16.C.01-AVX2/g16/l301.exe)
 Standard basis: def2SVP (5D, 7F)
 Ernie: Thresh=  0.10000D-02 Tol=  0.10000D-05 Strict=F.
 There are   100 symmetry adapted cartesian basis functions of A1  symmetry.
 There are    44 symmetry adapted cartesian basis functions of A2  symmetry.
 There are    72 symmetry adapted cartesian basis functions of B1  symmetry.
 There are    72 symmetry adapted cartesian basis functions of B2  symmetry.
 There are    84 symmetry adapted basis functions of A1  symmetry.
 There are    40 symmetry adapted basis functions of A2  symmetry.
 There are    62 symmetry adapted basis functions of B1  symmetry.
 There are    62 symmetry adapted basis functions of B2  symmetry.
   248 basis functions,   520 primitive gaussians,   288 cartesian basis functions
    76 alpha electrons       76 beta electrons
       nuclear repulsion energy      1641.5646639631 Hartrees.
 IExCor= 4639 DFT=T Ex+Corr=wB97XD ExCW=0 ScaHFX=  1.000000
 ScaDFX=  1.000000  1.000000  1.000000  1.000000 ScalE2=  1.000000  1.000000
 IRadAn=      5 IRanWt=     -1 IRanGd=            0 ICorTp=0 IEmpDi=121
 HFx  wShort=  0.000000 wLong=  0.200000 cFull=  0.222036 cShort=  0.000000 cLong=  0.777964
 DFx  wShort=  0.000000 wLong=  0.200000 cFull=  0.000000 cShort=  0.000000 cLong=  1.000000
 NAtoms=    8 NActive=    8 NUniq=    2 SFac= 4.00D+00 NAtFMM=   60 NAOKFM=F Big=F
 Integral buffers will be    131072 words long.
 Raffenetti 2 integral format.
 Two-electron integral symmetry is turned on.
 R6Disp:  Grimme-D2 Dispersion energy=       -0.0204372924 Hartrees.
 Nuclear repulsion after empirical dispersion term =     1641.5442266706 Hartrees.
 Leave Link  301 at Wed Feb 26 11:58:38 2025, MaxMem=  2097152000 cpu:               0.1 elap:               0.0
 (Enter /nvme/h/buildsets/eb_nepheli/software/Gaussian/16.C.01-AVX2/g16/l302.exe)
 NPDir=0 NMtPBC=     1 NCelOv=     1 NCel=       1 NClECP=     1 NCelD=      1
         NCelK=      1 NCelE2=     1 NClLst=     1 CellRange=     0.0.
 One-electron integrals computed using PRISM.
 One-electron integral symmetry used in STVInt
   8 Symmetry operations used in ECPInt.
 ECPInt:  NShTT=    3916 NPrTT=   11748 LenC2=    3871 LenP2D=   10262.
 LDataN:  DoStor=T MaxTD1= 7 Len=  274
 NBasis=   248 RedAO= T EigKep=  3.01D-04  NBF=    84    40    62    62
 NBsUse=   248 1.00D-06 EigRej= -1.00D+00 NBFU=    84    40    62    62
 Precomputing XC quadrature grid using
 IXCGrd= 4 IRadAn=           5 IRanWt=          -1 IRanGd=           0 AccXCQ= 0.00D+00.
 Defaulting to unpruned grid for atomic number  47.
 Defaulting to unpruned grid for atomic number  47.
 Defaulting to unpruned grid for atomic number  47.
 Defaulting to unpruned grid for atomic number  47.
 Generated NRdTot=       0 NPtTot=           0 NUsed=           0 NTot=          32
 NSgBfM=   287   287   287   287   287 MxSgAt=     8 MxSgA2=     8.
 Leave Link  302 at Wed Feb 26 11:58:39 2025, MaxMem=  2097152000 cpu:               2.6 elap:               0.7
 (Enter /nvme/h/buildsets/eb_nepheli/software/Gaussian/16.C.01-AVX2/g16/l303.exe)
 DipDrv:  MaxL=1.
 Leave Link  303 at Wed Feb 26 11:58:39 2025, MaxMem=  2097152000 cpu:               0.1 elap:               0.0
 (Enter /nvme/h/buildsets/eb_nepheli/software/Gaussian/16.C.01-AVX2/g16/l401.exe)
 ExpMin= 3.75D-02 ExpMax= 9.09D+00 ExpMxC= 9.09D+00 IAcc=3 IRadAn=         5 AccDes= 0.00D+00
 Harris functional with IExCor= 4639 and IRadAn=       5 diagonalized for initial guess.
 HarFok:  IExCor= 4639 AccDes= 0.00D+00 IRadAn=         5 IDoV= 1 UseB2=F ITyADJ=14
 ICtDFT=  3500011 ScaDFX=  1.000000  1.000000  1.000000  1.000000
 Defaulting to unpruned grid for atomic number  47.
 FoFCou: FMM=F IPFlag=           0 FMFlag=      100000 FMFlg1=           0
         NFxFlg=           0 DoJE=T BraDBF=F KetDBF=T FulRan=T
         wScrn=  0.000000 ICntrl=       500 IOpCl=  0 I1Cent=   200000004 NGrid=           0
         NMat0=    1 NMatS0=      1 NMatT0=    0 NMatD0=    1 NMtDS0=    0 NMtDT0=    0
 Petite list used in FoFCou.
 Harris En= -1144.75693556267    
 JPrj=0 DoOrth=F DoCkMO=F.
 Initial guess orbital symmetries:
       Occupied  (A1) (E) (E) (B2) (B2) (A1) (E) (E) (A1) (B2)
                 (E) (E) (E) (E) (A1) (B1) (B2) (E) (E) (A2) (A1)
                 (B2) (E) (E) (B2) (A1) (E) (E) (A2) (B1) (E) (E)
                 (A1) (B2) (E) (E) (A1) (B2) (A1) (E) (E) (B1)
                 (A2) (E) (E) (B2) (E) (E) (B2) (A1) (E) (E) (B1)
                 (A1) (E) (E) (A1) (B1) (E) (E) (A2) (B2) (A1)
                 (E) (E) (E) (E) (B2) (A2) (B2) (A1) (B1) (E) (E)
                 (A2) (E)
       Virtual   (E) (E) (E) (A1) (B2) (B1) (B2) (E) (E) (A1) (E)
                 (E) (B2) (A2) (E) (E) (B2) (E) (E) (A1) (E) (E)
                 (B1) (B2) (A1) (A2) (E) (E) (A1) (E) (E) (A1)
                 (E) (E) (B2) (B2) (B1) (A1) (B2) (E) (E) (E) (E)
                 (A1) (A2) (B2) (E) (E) (B1) (A1) (A1) (E) (E)
                 (A2) (E) (E) (E) (E) (B2) (B2) (E) (E) (A1) (A2)
                 (B2) (B1) (B2) (E) (E) (A1) (E) (E) (A1) (B1)
                 (A2) (E) (E) (B2) (B1) (E) (E) (A1) (A1) (E) (E)
                 (E) (E) (B2) (A2) (B1) (A1) (E) (E) (B2) (E) (E)
                 (E) (E) (A2) (B2) (A1) (B2) (A1) (E) (E) (E) (E)
                 (B2) (B1) (E) (E) (B1) (A1) (E) (E) (A2) (E) (E)
                 (B2) (B2) (E) (E) (A2) (A1) (B1) (A1) (E) (E)
                 (B2) (E) (E) (A2) (B2) (B1) (A2) (E) (E) (E) (E)
                 (A1) (B2) (B1) (A1) (E) (E) (B2) (A1) (E) (E)
                 (E) (E) (A2) (B2) (A2) (B1) (E) (E) (E) (E) (A1)
                 (A1) (E) (E) (B2) (A1) (B2) (E) (E) (A1) (E) (E)
                 (B2)
 Leave Link  401 at Wed Feb 26 11:58:40 2025, MaxMem=  2097152000 cpu:               1.3 elap:               0.3
 (Enter /nvme/h/buildsets/eb_nepheli/software/Gaussian/16.C.01-AVX2/g16/l502.exe)
 Keep R1 ints in memory in symmetry-blocked form, NReq=1192391427.
 FoFCou: FMM=F IPFlag=           0 FMFlag=           0 FMFlg1=           0
         NFxFlg=           0 DoJE=F BraDBF=F KetDBF=F FulRan=T
         wScrn=  0.000000 ICntrl=       600 IOpCl=  0 I1Cent=           0 NGrid=           0
         NMat0=    1 NMatS0=  30876 NMatT0=    0 NMatD0=    1 NMtDS0=    0 NMtDT0=    0
 Petite list used in FoFCou.
 Closed shell SCF:
 Using DIIS extrapolation, IDIIS=  1040.
 NGot=  2097152000 LenX=  1977431608 LenY=  1977348223
 Requested convergence on RMS density matrix=1.00D-08 within 128 cycles.
 Requested convergence on MAX density matrix=1.00D-06.
 Requested convergence on             energy=1.00D-06.
 No special actions if energy rises.

 Cycle   1  Pass 1  IDiag  1:
 Density matrix breaks symmetry, PCut= 1.00D-04
 Density has only Abelian symmetry.
 Defaulting to unpruned grid for atomic number  47.
 Defaulting to unpruned grid for atomic number  47.
 Defaulting to unpruned grid for atomic number  47.
 Defaulting to unpruned grid for atomic number  47.
 E= -1163.95276112836    
 DIIS: error= 2.28D-01 at cycle   1 NSaved=   1.
 NSaved= 1 IEnMin= 1 EnMin= -1163.95276112836     IErMin= 1 ErrMin= 2.28D-01
 ErrMax= 2.28D-01  0.00D+00 EMaxC= 1.00D-01 BMatC= 1.43D+01 BMatP= 1.43D+01
 IDIUse=3 WtCom= 0.00D+00 WtEn= 1.00D+00
 Coeff-Com:  0.100D+01
 Coeff-En:   0.100D+01
 Coeff:      0.100D+01
 Gap=     0.103 Goal=   None    Shift=    0.000
 GapD=    0.103 DampG=1.000 DampE=0.125 DampFc=0.1250 IDamp=-1.
 Damping current iteration by 1.25D-01
 RMSDP=3.94D-02 MaxDP=1.29D+00              OVMax= 7.43D-01

 Cycle   2  Pass 1  IDiag  1:
 Density matrix breaks symmetry, PCut= 1.00D-04
 Density has only Abelian symmetry.
 E= -1166.79908934158     Delta-E=       -2.846328213224 Rises=F Damp=T
 DIIS: error= 1.70D-01 at cycle   2 NSaved=   2.
 NSaved= 2 IEnMin= 2 EnMin= -1166.79908934158     IErMin= 2 ErrMin= 1.70D-01
 ErrMax= 1.70D-01  0.00D+00 EMaxC= 1.00D-01 BMatC= 7.87D+00 BMatP= 1.43D+01
 IDIUse=3 WtCom= 0.00D+00 WtEn= 1.00D+00
 Coeff-Com: -0.281D+01 0.381D+01
 Coeff-En:   0.000D+00 0.100D+01
 Coeff:      0.000D+00 0.100D+01
 Gap=     0.219 Goal=   None    Shift=    0.000
 RMSDP=3.29D-02 MaxDP=9.81D-01 DE=-2.85D+00 OVMax= 9.37D-02

 Cycle   3  Pass 1  IDiag  1:
 Density matrix breaks symmetry, PCut= 1.00D-04
 Density has only Abelian symmetry.
 E= -1171.52592001043     Delta-E=       -4.726830668841 Rises=F Damp=F
 DIIS: error= 1.07D-01 at cycle   3 NSaved=   3.
 NSaved= 3 IEnMin= 3 EnMin= -1171.52592001043     IErMin= 3 ErrMin= 1.07D-01
 ErrMax= 1.07D-01  0.00D+00 EMaxC= 1.00D-01 BMatC= 4.77D+00 BMatP= 7.87D+00
 IDIUse=3 WtCom= 0.00D+00 WtEn= 1.00D+00
 EnCoef did   100 forward-backward iterations
 Coeff-Com: -0.292D+01 0.394D+01-0.228D-01
 Coeff-En:   0.275D+00 0.453D-02 0.720D+00
 Coeff:      0.275D+00 0.453D-02 0.720D+00
 Gap=     0.165 Goal=   None    Shift=    0.000
 RMSDP=2.55D-02 MaxDP=8.85D-01 DE=-4.73D+00 OVMax= 4.85D-01

 Cycle   4  Pass 1  IDiag  1:
 Density matrix breaks symmetry, PCut= 1.00D-04
 Density has only Abelian symmetry.
 E= -1175.90684328927     Delta-E=       -4.380923278847 Rises=F Damp=F
 DIIS: error= 3.83D-02 at cycle   4 NSaved=   4.
 NSaved= 4 IEnMin= 4 EnMin= -1175.90684328927     IErMin= 4 ErrMin= 3.83D-02
 ErrMax= 3.83D-02  0.00D+00 EMaxC= 1.00D-01 BMatC= 5.34D-01 BMatP= 4.77D+00
 IDIUse=3 WtCom= 6.17D-01 WtEn= 3.83D-01
 Coeff-Com: -0.161D+01 0.215D+01 0.364D-01 0.427D+00
 Coeff-En:   0.000D+00 0.000D+00 0.000D+00 0.100D+01
 Coeff:     -0.995D+00 0.133D+01 0.224D-01 0.646D+00
 Gap=     0.234 Goal=   None    Shift=    0.000
 RMSDP=6.83D-03 MaxDP=1.72D-01 DE=-4.38D+00 OVMax= 2.21D-01

 Cycle   5  Pass 1  IDiag  1:
 Density matrix breaks symmetry, PCut= 1.00D-04
 Density has only Abelian symmetry.
 E= -1175.91755102847     Delta-E=       -0.010707739201 Rises=F Damp=F
 DIIS: error= 3.08D-02 at cycle   5 NSaved=   5.
 NSaved= 5 IEnMin= 5 EnMin= -1175.91755102847     IErMin= 5 ErrMin= 3.08D-02
 ErrMax= 3.08D-02  0.00D+00 EMaxC= 1.00D-01 BMatC= 3.66D-01 BMatP= 5.34D-01
 IDIUse=3 WtCom= 6.92D-01 WtEn= 3.08D-01
 Coeff-Com: -0.615D+00 0.822D+00-0.712D-01 0.352D+00 0.512D+00
 Coeff-En:   0.000D+00 0.000D+00 0.000D+00 0.492D+00 0.508D+00
 Coeff:     -0.426D+00 0.569D+00-0.493D-01 0.395D+00 0.511D+00
 Gap=     0.194 Goal=   None    Shift=    0.000
 RMSDP=4.04D-03 MaxDP=1.50D-01 DE=-1.07D-02 OVMax= 1.20D-01

 Cycle   6  Pass 1  IDiag  1:
 Density matrix breaks symmetry, PCut= 1.00D-04
 Density has only Abelian symmetry.
 E= -1176.21266712025     Delta-E=       -0.295116091774 Rises=F Damp=F
 DIIS: error= 7.58D-03 at cycle   6 NSaved=   6.
 NSaved= 6 IEnMin= 6 EnMin= -1176.21266712025     IErMin= 6 ErrMin= 7.58D-03
 ErrMax= 7.58D-03  0.00D+00 EMaxC= 1.00D-01 BMatC= 1.84D-02 BMatP= 3.66D-01
 IDIUse=3 WtCom= 9.24D-01 WtEn= 7.58D-02
 Coeff-Com: -0.927D-01 0.130D+00-0.383D-01-0.128D-01-0.111D+00 0.112D+01
 Coeff-En:   0.000D+00 0.000D+00 0.000D+00 0.000D+00 0.000D+00 0.100D+01
 Coeff:     -0.857D-01 0.120D+00-0.354D-01-0.118D-01-0.102D+00 0.111D+01
 Gap=     0.199 Goal=   None    Shift=    0.000
 RMSDP=1.57D-03 MaxDP=4.27D-02 DE=-2.95D-01 OVMax= 3.11D-02

 Cycle   7  Pass 1  IDiag  1:
 Density matrix breaks symmetry, PCut= 1.00D-04
 Density has only Abelian symmetry.
 E= -1176.22992582393     Delta-E=       -0.017258703687 Rises=F Damp=F
 DIIS: error= 2.31D-03 at cycle   7 NSaved=   7.
 NSaved= 7 IEnMin= 7 EnMin= -1176.22992582393     IErMin= 7 ErrMin= 2.31D-03
 ErrMax= 2.31D-03  0.00D+00 EMaxC= 1.00D-01 BMatC= 1.47D-03 BMatP= 1.84D-02
 IDIUse=3 WtCom= 9.77D-01 WtEn= 2.31D-02
 Coeff-Com: -0.320D-01 0.460D-01-0.503D-02-0.619D-01-0.174D+00 0.517D+00
 Coeff-Com:  0.711D+00
 Coeff-En:   0.000D+00 0.000D+00 0.000D+00 0.000D+00 0.000D+00 0.000D+00
 Coeff-En:   0.100D+01
 Coeff:     -0.312D-01 0.450D-01-0.491D-02-0.604D-01-0.170D+00 0.505D+00
 Coeff:      0.717D+00
 Gap=     0.201 Goal=   None    Shift=    0.000
 RMSDP=3.74D-04 MaxDP=1.53D-02 DE=-1.73D-02 OVMax= 1.62D-02

 Cycle   8  Pass 1  IDiag  1:
 Density matrix breaks symmetry, PCut= 1.00D-04
 Density has only Abelian symmetry.
 E= -1176.23132665221     Delta-E=       -0.001400828276 Rises=F Damp=F
 DIIS: error= 1.02D-03 at cycle   8 NSaved=   8.
 NSaved= 8 IEnMin= 8 EnMin= -1176.23132665221     IErMin= 8 ErrMin= 1.02D-03
 ErrMax= 1.02D-03  0.00D+00 EMaxC= 1.00D-01 BMatC= 3.72D-04 BMatP= 1.47D-03
 IDIUse=3 WtCom= 9.90D-01 WtEn= 1.02D-02
 Coeff-Com: -0.441D-02 0.576D-02 0.130D-02-0.829D-02-0.268D-01-0.916D-01
 Coeff-Com:  0.253D+00 0.871D+00
 Coeff-En:   0.000D+00 0.000D+00 0.000D+00 0.000D+00 0.000D+00 0.000D+00
 Coeff-En:   0.000D+00 0.100D+01
 Coeff:     -0.437D-02 0.570D-02 0.128D-02-0.820D-02-0.265D-01-0.907D-01
 Coeff:      0.250D+00 0.873D+00
 Gap=     0.201 Goal=   None    Shift=    0.000
 RMSDP=1.79D-04 MaxDP=5.65D-03 DE=-1.40D-03 OVMax= 7.64D-03

 Cycle   9  Pass 1  IDiag  1:
 Density matrix breaks symmetry, PCut= 1.00D-04
 Density has only Abelian symmetry.
 E= -1176.23173017703     Delta-E=       -0.000403524818 Rises=F Damp=F
 DIIS: error= 2.47D-04 at cycle   9 NSaved=   9.
 NSaved= 9 IEnMin= 9 EnMin= -1176.23173017703     IErMin= 9 ErrMin= 2.47D-04
 ErrMax= 2.47D-04  0.00D+00 EMaxC= 1.00D-01 BMatC= 2.07D-05 BMatP= 3.72D-04
 IDIUse=3 WtCom= 9.98D-01 WtEn= 2.47D-03
 Coeff-Com:  0.470D-02-0.668D-02-0.275D-03 0.322D-02 0.102D-01-0.915D-01
 Coeff-Com:  0.301D-01 0.386D+00 0.664D+00
 Coeff-En:   0.000D+00 0.000D+00 0.000D+00 0.000D+00 0.000D+00 0.000D+00
 Coeff-En:   0.000D+00 0.000D+00 0.100D+01
 Coeff:      0.468D-02-0.667D-02-0.274D-03 0.321D-02 0.102D-01-0.912D-01
 Coeff:      0.300D-01 0.385D+00 0.665D+00
 Gap=     0.201 Goal=   None    Shift=    0.000
 RMSDP=5.98D-05 MaxDP=1.69D-03 DE=-4.04D-04 OVMax= 2.43D-03

 Cycle  10  Pass 1  IDiag  1:
 Density matrix breaks symmetry, PCut= 1.00D-04
 Density has only Abelian symmetry.
 E= -1176.23175390844     Delta-E=       -0.000023731410 Rises=F Damp=F
 DIIS: error= 1.39D-04 at cycle  10 NSaved=  10.
 NSaved=10 IEnMin=10 EnMin= -1176.23175390844     IErMin=10 ErrMin= 1.39D-04
 ErrMax= 1.39D-04  0.00D+00 EMaxC= 1.00D-01 BMatC= 6.09D-06 BMatP= 2.07D-05
 IDIUse=3 WtCom= 9.99D-01 WtEn= 1.39D-03
 Coeff-Com: -0.555D-03 0.539D-03-0.689D-04 0.160D-02 0.493D-02 0.907D-02
 Coeff-Com: -0.265D-01-0.530D-01 0.758D-01 0.988D+00
 Coeff-En:   0.000D+00 0.000D+00 0.000D+00 0.000D+00 0.000D+00 0.000D+00
 Coeff-En:   0.000D+00 0.000D+00 0.000D+00 0.100D+01
 Coeff:     -0.554D-03 0.538D-03-0.688D-04 0.159D-02 0.492D-02 0.906D-02
 Coeff:     -0.264D-01-0.529D-01 0.757D-01 0.988D+00
 Gap=     0.201 Goal=   None    Shift=    0.000
 RMSDP=5.25D-05 MaxDP=1.59D-03 DE=-2.37D-05 OVMax= 1.38D-03

 Cycle  11  Pass 1  IDiag  1:
 Density matrix breaks symmetry, PCut= 1.00D-04
 Density has only Abelian symmetry.
 E= -1176.23176275003     Delta-E=       -0.000008841590 Rises=F Damp=F
 DIIS: error= 3.57D-05 at cycle  11 NSaved=  11.
 NSaved=11 IEnMin=11 EnMin= -1176.23176275003     IErMin=11 ErrMin= 3.57D-05
 ErrMax= 3.57D-05  0.00D+00 EMaxC= 1.00D-01 BMatC= 1.88D-07 BMatP= 6.09D-06
 IDIUse=1 WtCom= 1.00D+00 WtEn= 0.00D+00
 Coeff-Com: -0.404D-03 0.523D-03 0.474D-04-0.236D-03-0.150D-03 0.101D-01
 Coeff-Com: -0.854D-02-0.594D-01-0.607D-01 0.160D+00 0.959D+00
 Coeff:     -0.404D-03 0.523D-03 0.474D-04-0.236D-03-0.150D-03 0.101D-01
 Coeff:     -0.854D-02-0.594D-01-0.607D-01 0.160D+00 0.959D+00
 Gap=     0.201 Goal=   None    Shift=    0.000
 RMSDP=1.58D-05 MaxDP=4.80D-04 DE=-8.84D-06 OVMax= 9.45D-04

 Cycle  12  Pass 1  IDiag  1:
 Density matrix breaks symmetry, PCut= 1.00D-04
 Density has only Abelian symmetry.
 E= -1176.23176405582     Delta-E=       -0.000001305792 Rises=F Damp=F
 DIIS: error= 2.20D-05 at cycle  12 NSaved=  12.
 NSaved=12 IEnMin=12 EnMin= -1176.23176405582     IErMin=12 ErrMin= 2.20D-05
 ErrMax= 2.20D-05  0.00D+00 EMaxC= 1.00D-01 BMatC= 7.47D-08 BMatP= 1.88D-07
 IDIUse=1 WtCom= 1.00D+00 WtEn= 0.00D+00
 Coeff-Com: -0.136D-03 0.210D-03 0.178D-04-0.318D-03-0.856D-03 0.614D-03
 Coeff-Com:  0.217D-02-0.995D-02-0.334D-01-0.123D+00 0.318D+00 0.846D+00
 Coeff:     -0.136D-03 0.210D-03 0.178D-04-0.318D-03-0.856D-03 0.614D-03
 Coeff:      0.217D-02-0.995D-02-0.334D-01-0.123D+00 0.318D+00 0.846D+00
 Gap=     0.201 Goal=   None    Shift=    0.000
 RMSDP=6.46D-06 MaxDP=1.84D-04 DE=-1.31D-06 OVMax= 5.62D-04

 Cycle  13  Pass 1  IDiag  1:
 E= -1176.23176443202     Delta-E=       -0.000000376195 Rises=F Damp=F
 DIIS: error= 1.09D-05 at cycle  13 NSaved=  13.
 NSaved=13 IEnMin=13 EnMin= -1176.23176443202     IErMin=13 ErrMin= 1.09D-05
 ErrMax= 1.09D-05  0.00D+00 EMaxC= 1.00D-01 BMatC= 1.24D-08 BMatP= 7.47D-08
 IDIUse=1 WtCom= 1.00D+00 WtEn= 0.00D+00
 Coeff-Com: -0.454D-04 0.680D-04-0.202D-04 0.110D-03 0.189D-03-0.242D-02
 Coeff-Com:  0.129D-02 0.127D-01 0.138D-01-0.180D-01-0.180D+00-0.318D+00
 Coeff-Com:  0.149D+01
 Coeff:     -0.454D-04 0.680D-04-0.202D-04 0.110D-03 0.189D-03-0.242D-02
 Coeff:      0.129D-02 0.127D-01 0.138D-01-0.180D-01-0.180D+00-0.318D+00
 Coeff:      0.149D+01
 Gap=     0.201 Goal=   None    Shift=    0.000
 RMSDP=5.30D-06 MaxDP=1.40D-04 DE=-3.76D-07 OVMax= 5.65D-04

 Cycle  14  Pass 1  IDiag  1:
 E= -1176.23176458381     Delta-E=       -0.000000151799 Rises=F Damp=F
 DIIS: error= 3.89D-06 at cycle  14 NSaved=  14.
 NSaved=14 IEnMin=14 EnMin= -1176.23176458381     IErMin=14 ErrMin= 3.89D-06
 ErrMax= 3.89D-06  0.00D+00 EMaxC= 1.00D-01 BMatC= 1.90D-09 BMatP= 1.24D-08
 IDIUse=1 WtCom= 1.00D+00 WtEn= 0.00D+00
 Coeff-Com:  0.839D-05-0.129D-04-0.998D-05 0.759D-04 0.169D-03-0.273D-03
 Coeff-Com: -0.201D-03 0.238D-02 0.613D-02 0.229D-01-0.730D-01-0.132D+00
 Coeff-Com:  0.690D-03 0.117D+01
 Coeff:      0.839D-05-0.129D-04-0.998D-05 0.759D-04 0.169D-03-0.273D-03
 Coeff:     -0.201D-03 0.238D-02 0.613D-02 0.229D-01-0.730D-01-0.132D+00
 Coeff:      0.690D-03 0.117D+01
 Gap=     0.201 Goal=   None    Shift=    0.000
 RMSDP=2.19D-06 MaxDP=5.70D-05 DE=-1.52D-07 OVMax= 2.10D-04

 Cycle  15  Pass 1  IDiag  1:
 E= -1176.23176460799     Delta-E=       -0.000000024176 Rises=F Damp=F
 DIIS: error= 1.00D-06 at cycle  15 NSaved=  15.
 NSaved=15 IEnMin=15 EnMin= -1176.23176460799     IErMin=15 ErrMin= 1.00D-06
 ErrMax= 1.00D-06  0.00D+00 EMaxC= 1.00D-01 BMatC= 1.73D-10 BMatP= 1.90D-09
 IDIUse=1 WtCom= 1.00D+00 WtEn= 0.00D+00
 Coeff-Com:  0.117D-04-0.164D-04 0.459D-05-0.110D-04-0.340D-04 0.260D-03
 Coeff-Com: -0.209D-04-0.143D-02-0.247D-02-0.812D-03 0.283D-01 0.452D-01
 Coeff-Com: -0.230D+00 0.488D-01 0.111D+01
 Coeff:      0.117D-04-0.164D-04 0.459D-05-0.110D-04-0.340D-04 0.260D-03
 Coeff:     -0.209D-04-0.143D-02-0.247D-02-0.812D-03 0.283D-01 0.452D-01
 Coeff:     -0.230D+00 0.488D-01 0.111D+01
 Gap=     0.201 Goal=   None    Shift=    0.000
 RMSDP=7.80D-07 MaxDP=2.46D-05 DE=-2.42D-08 OVMax= 7.26D-05

 Cycle  16  Pass 1  IDiag  1:
 E= -1176.23176460977     Delta-E=       -0.000000001778 Rises=F Damp=F
 DIIS: error= 3.16D-07 at cycle  16 NSaved=  16.
 NSaved=16 IEnMin=16 EnMin= -1176.23176460977     IErMin=16 ErrMin= 3.16D-07
 ErrMax= 3.16D-07  0.00D+00 EMaxC= 1.00D-01 BMatC= 3.97D-11 BMatP= 1.73D-10
 IDIUse=1 WtCom= 1.00D+00 WtEn= 0.00D+00
 Coeff-Com:  0.221D-05-0.307D-05 0.230D-06-0.540D-05-0.481D-05-0.548D-05
 Coeff-Com:  0.129D-04 0.102D-03-0.960D-04-0.205D-02 0.172D-02 0.638D-02
 Coeff-Com:  0.215D-01-0.835D-01-0.152D+00 0.121D+01
 Coeff:      0.221D-05-0.307D-05 0.230D-06-0.540D-05-0.481D-05-0.548D-05
 Coeff:      0.129D-04 0.102D-03-0.960D-04-0.205D-02 0.172D-02 0.638D-02
 Coeff:      0.215D-01-0.835D-01-0.152D+00 0.121D+01
 Gap=     0.201 Goal=   None    Shift=    0.000
 RMSDP=1.80D-07 MaxDP=6.66D-06 DE=-1.78D-09 OVMax= 1.36D-05

 Cycle  17  Pass 1  IDiag  1:
 E= -1176.23176460992     Delta-E=       -0.000000000154 Rises=F Damp=F
 DIIS: error= 6.41D-08 at cycle  17 NSaved=  17.
 NSaved=17 IEnMin=17 EnMin= -1176.23176460992     IErMin=17 ErrMin= 6.41D-08
 ErrMax= 6.41D-08  0.00D+00 EMaxC= 1.00D-01 BMatC= 2.12D-12 BMatP= 3.97D-11
 IDIUse=1 WtCom= 1.00D+00 WtEn= 0.00D+00
 Coeff-Com: -0.509D-06 0.663D-06-0.178D-06-0.144D-05-0.489D-06-0.132D-04
 Coeff-Com:  0.545D-05 0.108D-03 0.116D-03-0.692D-03-0.913D-03 0.298D-03
 Coeff-Com:  0.201D-01-0.263D-01-0.102D+00 0.354D+00 0.755D+00
 Coeff:     -0.509D-06 0.663D-06-0.178D-06-0.144D-05-0.489D-06-0.132D-04
 Coeff:      0.545D-05 0.108D-03 0.116D-03-0.692D-03-0.913D-03 0.298D-03
 Coeff:      0.201D-01-0.263D-01-0.102D+00 0.354D+00 0.755D+00
 Gap=     0.201 Goal=   None    Shift=    0.000
 RMSDP=2.73D-08 MaxDP=8.28D-07 DE=-1.54D-10 OVMax= 1.51D-06

 Cycle  18  Pass 1  IDiag  1:
 E= -1176.23176460993     Delta-E=       -0.000000000005 Rises=F Damp=F
 DIIS: error= 1.90D-08 at cycle  18 NSaved=  18.
 NSaved=18 IEnMin=18 EnMin= -1176.23176460993     IErMin=18 ErrMin= 1.90D-08
 ErrMax= 1.90D-08  0.00D+00 EMaxC= 1.00D-01 BMatC= 1.61D-13 BMatP= 2.12D-12
 IDIUse=1 WtCom= 1.00D+00 WtEn= 0.00D+00
 Coeff-Com: -0.257D-06 0.358D-06-0.589D-07 0.394D-06-0.104D-06 0.302D-05
 Coeff-Com: -0.306D-05-0.325D-04 0.341D-05 0.237D-03 0.544D-04-0.637D-03
 Coeff-Com: -0.533D-02 0.110D-01 0.306D-01-0.191D+00 0.297D-01 0.113D+01
 Coeff:     -0.257D-06 0.358D-06-0.589D-07 0.394D-06-0.104D-06 0.302D-05
 Coeff:     -0.306D-05-0.325D-04 0.341D-05 0.237D-03 0.544D-04-0.637D-03
 Coeff:     -0.533D-02 0.110D-01 0.306D-01-0.191D+00 0.297D-01 0.113D+01
 Gap=     0.201 Goal=   None    Shift=    0.000
 RMSDP=1.07D-08 MaxDP=2.86D-07 DE=-4.55D-12 OVMax= 8.71D-07

 Cycle  19  Pass 1  IDiag  1:
 E= -1176.23176460990     Delta-E=        0.000000000026 Rises=F Damp=F
 DIIS: error= 6.36D-09 at cycle  19 NSaved=  19.
 NSaved=19 IEnMin=18 EnMin= -1176.23176460993     IErMin=19 ErrMin= 6.36D-09
 ErrMax= 6.36D-09  0.00D+00 EMaxC= 1.00D-01 BMatC= 1.62D-14 BMatP= 1.61D-13
 IDIUse=1 WtCom= 1.00D+00 WtEn= 0.00D+00
 Large coefficients: NSaved= 19 BigCof=    0.00 CofMax=   10.00 Det=-9.65D-15
 Inversion failed.  Reducing to 18 matrices.
 Large coefficients: NSaved= 18 BigCof=    0.00 CofMax=   10.00 Det=-9.84D-15
 Inversion failed.  Reducing to 17 matrices.
 Coeff-Com:  0.296D-08-0.447D-09 0.118D-06-0.310D-06-0.147D-07 0.159D-05
 Coeff-Com: -0.339D-05 0.907D-05-0.234D-05 0.837D-05 0.632D-03-0.159D-02
 Coeff-Com: -0.364D-02 0.296D-01-0.359D-01-0.208D+00 0.122D+01
 Coeff:      0.296D-08-0.447D-09 0.118D-06-0.310D-06-0.147D-07 0.159D-05
 Coeff:     -0.339D-05 0.907D-05-0.234D-05 0.837D-05 0.632D-03-0.159D-02
 Coeff:     -0.364D-02 0.296D-01-0.359D-01-0.208D+00 0.122D+01
 Gap=     0.201 Goal=   None    Shift=    0.000
 RMSDP=2.10D-09 MaxDP=5.64D-08 DE= 2.64D-11 OVMax= 6.38D-08

 SCF Done:  E(RwB97XD) =  -1176.23176461     A.U. after   19 cycles
            NFock= 19  Conv=0.21D-08     -V/T= 3.6217
 KE= 4.486510978243D+02 PE=-5.820201056625D+03 EE= 2.553773967520D+03
 Leave Link  502 at Wed Feb 26 11:58:57 2025, MaxMem=  2097152000 cpu:              67.9 elap:              17.4
 (Enter /nvme/h/buildsets/eb_nepheli/software/Gaussian/16.C.01-AVX2/g16/l508.exe)
 QCSCF skips out because SCF is already converged.
 Leave Link  508 at Wed Feb 26 11:58:57 2025, MaxMem=  2097152000 cpu:               0.0 elap:               0.0
 (Enter /nvme/h/buildsets/eb_nepheli/software/Gaussian/16.C.01-AVX2/g16/l601.exe)
 Copying SCF densities to generalized density rwf, IOpCl= 0 IROHF=0.

 **********************************************************************

            Population analysis using the SCF Density.

 **********************************************************************

 Orbital symmetries:
       Occupied  (A1) (B2) (E) (E) (A1) (E) (E) (B2) (B2) (E) (E)
                 (A1) (A1) (B2) (E) (E) (B1) (A2) (E) (E) (A1)
                 (E) (E) (B2) (A1) (E) (E) (B1) (B2) (E) (E) (A2)
                 (A1) (B2) (B2) (E) (E) (B1) (A2) (A1) (E) (E)
                 (E) (E) (B2) (A1) (E) (E) (B1) (A1) (E) (E) (A1)
                 (A2) (B1) (E) (E) (B2) (E) (E) (A1) (E) (E) (B2)
                 (A1) (E) (E) (A2) (B1) (B2) (A2) (E) (E) (B2)
                 (E) (E)
       Virtual   (A1) (E) (E) (B2) (A1) (B1) (B2) (E) (E) (A1)
                 (B2) (E) (E) (A2) (E) (E) (A1) (E) (E) (B2) (E)
                 (E) (B1) (A1) (B2) (A2) (E) (E) (A1) (E) (E) (A1)
                 (B2) (E) (E) (B1) (B2) (A1) (E) (E) (B2) (E) (E)
                 (A1) (A2) (B2) (E) (E) (A1) (B1) (E) (E) (A1)
                 (A2) (E) (E) (E) (E) (B2) (B2) (E) (E) (A2) (A1)
                 (B2) (B1) (B2) (E) (E) (A1) (E) (E) (B1) (A2)
                 (A1) (B1) (B2) (E) (E) (E) (E) (A1) (A1) (E) (E)
                 (E) (E) (B2) (A2) (B1) (A1) (E) (E) (B2) (E) (E)
                 (E) (E) (A2) (B2) (A1) (B2) (E) (E) (A1) (E) (E)
                 (B2) (E) (E) (B1) (A2) (E) (E) (A1) (A2) (B2)
                 (A1) (B1) (B2) (E) (E) (B1) (E) (E) (A2) (E) (E)
                 (B2) (E) (E) (B1) (A1) (A2) (B1) (E) (E) (B2)
                 (A1) (E) (E) (A1) (B2) (E) (E) (B2) (E) (E) (A1)
                 (A2) (E) (E) (A1) (E) (E) (B2) (A2) (B1) (E) (E)
                 (A1) (E) (E) (B2) (A1) (B2) (E) (E) (A1) (E) (E)
                 (B2)
 The electronic state is 1-A1.
 Alpha  occ. eigenvalues --   -3.84307  -3.84306  -3.84301  -3.84301  -3.83955
 Alpha  occ. eigenvalues --   -3.83947  -3.83947  -3.83937  -2.42661  -2.42613
 Alpha  occ. eigenvalues --   -2.42613  -2.42610  -2.42502  -2.42466  -2.42465
 Alpha  occ. eigenvalues --   -2.42465  -2.42448  -2.42437  -2.42387  -2.42387
 Alpha  occ. eigenvalues --   -2.42197  -2.42152  -2.42152  -2.42113  -2.42090
 Alpha  occ. eigenvalues --   -2.42075  -2.42075  -2.42074  -2.41984  -2.41972
 Alpha  occ. eigenvalues --   -2.41972  -2.41945  -0.46385  -0.46062  -0.45363
 Alpha  occ. eigenvalues --   -0.45079  -0.45079  -0.44980  -0.44934  -0.44744
 Alpha  occ. eigenvalues --   -0.44562  -0.44562  -0.44239  -0.44239  -0.43136
 Alpha  occ. eigenvalues --   -0.43113  -0.42963  -0.42963  -0.42626  -0.41899
 Alpha  occ. eigenvalues --   -0.41542  -0.41542  -0.40863  -0.40801  -0.40781
 Alpha  occ. eigenvalues --   -0.40562  -0.40562  -0.40446  -0.40255  -0.40255
 Alpha  occ. eigenvalues --   -0.39505  -0.39241  -0.39241  -0.39208  -0.38995
 Alpha  occ. eigenvalues --   -0.38688  -0.38688  -0.38600  -0.38482  -0.38344
 Alpha  occ. eigenvalues --   -0.38248  -0.37993  -0.37993  -0.27046  -0.23924
 Alpha  occ. eigenvalues --   -0.23924
 Alpha virt. eigenvalues --   -0.03823  -0.03373  -0.03373  -0.01570  -0.00066
 Alpha virt. eigenvalues --    0.00359   0.04631   0.05569   0.05569   0.06499
 Alpha virt. eigenvalues --    0.07884   0.08218   0.08218   0.08973   0.11440
 Alpha virt. eigenvalues --    0.11440   0.13428   0.14024   0.14024   0.14574
 Alpha virt. eigenvalues --    0.15066   0.15066   0.15511   0.16092   0.16228
 Alpha virt. eigenvalues --    0.17772   0.18786   0.18786   0.25015   0.26146
 Alpha virt. eigenvalues --    0.26146   0.27510   0.27598   0.28295   0.28295
 Alpha virt. eigenvalues --    0.29305   0.29908   0.30564   0.31678   0.31678
 Alpha virt. eigenvalues --    0.31809   0.33455   0.33455   0.33764   0.34781
 Alpha virt. eigenvalues --    0.35756   0.41100   0.41100   0.43287   0.43687
 Alpha virt. eigenvalues --    0.45260   0.45260   0.45307   0.47439   0.49591
 Alpha virt. eigenvalues --    0.49591   0.52978   0.52978   0.53008   0.56187
 Alpha virt. eigenvalues --    0.56941   0.56941   0.57076   0.59174   0.61745
 Alpha virt. eigenvalues --    0.61848   0.66845   0.67908   0.67908   0.69623
 Alpha virt. eigenvalues --    0.70702   0.70702   0.72184   0.72435   0.72592
 Alpha virt. eigenvalues --    0.74499   0.74984   0.75405   0.75405   0.78994
 Alpha virt. eigenvalues --    0.78994   0.80000   0.80997   0.82168   0.82168
 Alpha virt. eigenvalues --    0.82481   0.82481   0.84965   0.87540   0.87598
 Alpha virt. eigenvalues --    0.90356   0.90818   0.90818   0.92343   0.92858
 Alpha virt. eigenvalues --    0.92858   1.00332   1.00332   1.01523   1.07144
 Alpha virt. eigenvalues --    2.14692   2.28737   2.29865   2.29865   2.30115
 Alpha virt. eigenvalues --    2.35643   2.35643   2.40637   2.67786   2.67786
 Alpha virt. eigenvalues --    2.67799   2.67830   2.67842   2.67842   2.67896
 Alpha virt. eigenvalues --    2.67903   2.67905   2.67921   2.67978   2.67995
 Alpha virt. eigenvalues --    2.68037   2.68037   2.68071   2.68086   2.68086
 Alpha virt. eigenvalues --    2.68110   2.68200   2.68200   2.68269   2.68375
 Alpha virt. eigenvalues --    2.68375   2.68417   2.68474   2.68620   2.68655
 Alpha virt. eigenvalues --    2.68672   2.68672   2.68768   2.68772   2.68855
 Alpha virt. eigenvalues --    2.68855   2.68938   2.68951   2.69066   2.69066
 Alpha virt. eigenvalues --    2.69483   2.69501   2.69501   2.69874   2.69929
 Alpha virt. eigenvalues --    2.70195   2.70195   2.70435   2.70497   2.70497
 Alpha virt. eigenvalues --    2.70646   2.70878   2.71060   2.71386   2.71386
 Alpha virt. eigenvalues --    2.72997   2.73152   2.73152   2.73498  54.31701
 Alpha virt. eigenvalues --   54.40709  54.42355  54.42355  54.43678  54.47705
 Alpha virt. eigenvalues --   54.47705  54.51317
          Condensed to atoms (all electrons):
               1          2          3          4          5          6
     1  Ag  18.483633   0.108722  -0.028870   0.108722   0.004175   0.015653
     2  Ag   0.108722  18.595937   0.088242  -0.012179   0.108722   0.171747
     3  Ag  -0.028870   0.088242  18.595937   0.088242   0.171747   0.108722
     4  Ag   0.108722  -0.012179   0.088242  18.595937   0.108722  -0.028870
     5  Ag   0.004175   0.108722   0.171747   0.108722  18.483633   0.015653
     6  Ag   0.015653   0.171747   0.108722  -0.028870   0.015653  18.483633
     7  Ag   0.171747   0.088242  -0.012179   0.088242  -0.028870   0.108722
     8  Ag   0.015653  -0.028870   0.108722   0.171747   0.015653   0.004175
               7          8
     1  Ag   0.171747   0.015653
     2  Ag   0.088242  -0.028870
     3  Ag  -0.012179   0.108722
     4  Ag   0.088242   0.171747
     5  Ag  -0.028870   0.015653
     6  Ag   0.108722   0.004175
     7  Ag  18.595937   0.108722
     8  Ag   0.108722  18.483633
 Mulliken charges:
               1
     1  Ag   0.120565
     2  Ag  -0.120565
     3  Ag  -0.120565
     4  Ag  -0.120565
     5  Ag   0.120565
     6  Ag   0.120565
     7  Ag  -0.120565
     8  Ag   0.120565
 Sum of Mulliken charges =  -0.00000
 Mulliken charges with hydrogens summed into heavy atoms:
               1
     1  Ag   0.120565
     2  Ag  -0.120565
     3  Ag  -0.120565
     4  Ag  -0.120565
     5  Ag   0.120565
     6  Ag   0.120565
     7  Ag  -0.120565
     8  Ag   0.120565
 Electronic spatial extent (au):  <R**2>=           3243.0962
 Charge=             -0.0000 electrons
 Dipole moment (field-independent basis, Debye):
    X=             -0.0000    Y=             -0.0000    Z=              0.0000  Tot=              0.0000
 Quadrupole moment (field-independent basis, Debye-Ang):
   XX=           -159.2761   YY=           -159.2761   ZZ=           -142.8799
   XY=             -0.0000   XZ=              0.0000   YZ=              0.0000
 Traceless Quadrupole moment (field-independent basis, Debye-Ang):
   XX=             -5.4654   YY=             -5.4654   ZZ=             10.9308
   XY=             -0.0000   XZ=              0.0000   YZ=              0.0000
 Octapole moment (field-independent basis, Debye-Ang**2):
  XXX=             -0.0000  YYY=              0.0000  ZZZ=             -0.0000  XYY=             -0.0000
  XXY=             -0.0000  XXZ=              3.8682  XZZ=              0.0000  YZZ=             -0.0000
  YYZ=             -3.8682  XYZ=              0.0000
 Hexadecapole moment (field-independent basis, Debye-Ang**3):
 XXXX=          -1578.9571 YYYY=          -1578.9571 ZZZZ=          -2324.0543 XXXY=              0.0000
 XXXZ=              0.0000 YYYX=              0.0000 YYYZ=             -0.0000 ZZZX=             -0.0000
 ZZZY=              0.0000 XXYY=           -555.0854 XXZZ=           -645.3994 YYZZ=           -645.3994
 XXYZ=              0.0000 YYXZ=              0.0000 ZZXY=              0.0000
 N-N= 1.641544226671D+03 E-N=-5.820201050973D+03  KE= 4.486510978243D+02
 Symmetry A1   KE= 1.455535575381D+02
 Symmetry A2   KE= 7.794969012769D+01
 Symmetry B1   KE= 1.125739250792D+02
 Symmetry B2   KE= 1.125739250792D+02
 No NMR shielding tensors so no spin-rotation constants.
 Leave Link  601 at Wed Feb 26 11:58:58 2025, MaxMem=  2097152000 cpu:               0.5 elap:               0.2
 (Enter /nvme/h/buildsets/eb_nepheli/software/Gaussian/16.C.01-AVX2/g16/l701.exe)
 ... and contract with generalized density number  0.
 Compute integral first derivatives.
 R6Disp: Adding Grimme-D2 dispersion energy 1st derivatives to the gradient.
   8 Symmetry operations used in ECPInt.
 ECPInt:  NShTT=    3916 NPrTT=   11748 LenC2=    3871 LenP2D=   10262.
 LDataN:  DoStor=T MaxTD1= 8 Len=  415
 Leave Link  701 at Wed Feb 26 11:59:00 2025, MaxMem=  2097152000 cpu:               7.6 elap:               1.9
 (Enter /nvme/h/buildsets/eb_nepheli/software/Gaussian/16.C.01-AVX2/g16/l702.exe)
 L702 exits ... SP integral derivatives will be done elsewhere.
 Leave Link  702 at Wed Feb 26 11:59:00 2025, MaxMem=  2097152000 cpu:               0.0 elap:               0.0
 (Enter /nvme/h/buildsets/eb_nepheli/software/Gaussian/16.C.01-AVX2/g16/l703.exe)
 Integral derivatives from FoFJK, PRISM(SPDF).
 Compute integral first derivatives, UseDBF=F ICtDFT=           0.
 Calling FoFJK, ICntrl=      2127 FMM=F ISym2X=1 I1Cent= 0 IOpClX= 0 NMat=1 NMatS=1 NMatT=0.
 FoFJK:  IHMeth= 1 ICntrl=    2127 DoSepK=T KAlg= 0 I1Cent=           0 FoldK=F
 IRaf=         1 NMat=       1 IRICut=       1 DoRegI=T DoRafI=F ISym2E= 1 IDoP0=0 IntGTp=1.
 FoFCou: FMM=F IPFlag=           0 FMFlag=      100000 FMFlg1=         800
         NFxFlg=           0 DoJE=F BraDBF=F KetDBF=F FulRan=T
         wScrn=  0.000000 ICntrl=      2527 IOpCl=  0 I1Cent=           0 NGrid=           0
         NMat0=    1 NMatS0=      1 NMatT0=    0 NMatD0=    1 NMtDS0=    0 NMtDT0=    0
 Petite list used in FoFCou.
 Defaulting to unpruned grid for atomic number  47.
 Defaulting to unpruned grid for atomic number  47.
 Defaulting to unpruned grid for atomic number  47.
 Defaulting to unpruned grid for atomic number  47.
 Leave Link  703 at Wed Feb 26 11:59:04 2025, MaxMem=  2097152000 cpu:              17.4 elap:               4.4
 (Enter /nvme/h/buildsets/eb_nepheli/software/Gaussian/16.C.01-AVX2/g16/l716.exe)
 Dipole        = 4.71664952D-15-8.88178420D-15 1.33226763D-14
 ***** Axes restored to original set *****
 -------------------------------------------------------------------
 Center     Atomic                   Forces (Hartrees/Bohr)
 Number     Number              X              Y              Z
 -------------------------------------------------------------------
      1       47           0.000048685    0.000048685   -0.000200277
      2       47           0.000068768   -0.000068768   -0.000172925
      3       47           0.000068768    0.000068768    0.000172925
      4       47          -0.000068768    0.000068768   -0.000172925
      5       47          -0.000048685   -0.000048685   -0.000200277
      6       47          -0.000048685    0.000048685    0.000200277
      7       47          -0.000068768   -0.000068768    0.000172925
      8       47           0.000048685   -0.000048685    0.000200277
 -------------------------------------------------------------------
 Cartesian Forces:  Max     0.000200277 RMS     0.000118471
 Z-matrix is all fixed cartesians, so copy forces.
 Force constants in Cartesian coordinates: 
                1             2             3             4             5 
      1  0.136164D+00
      2  0.263742D-01  0.136164D+00
      3  0.311310D-01  0.311310D-01  0.190425D+00
      4 -0.623844D-01  0.229009D-01 -0.805022D-02  0.220265D+00
      5 -0.574946D-02 -0.258449D-01 -0.121869D-01 -0.489490D-01  0.220265D+00
      6 -0.367902D-01  0.944980D-02 -0.380708D-01 -0.101947D-01  0.101947D-01
      7  0.309869D-02 -0.738888D-02 -0.833775D-02 -0.348775D-01  0.163584D-01
      8 -0.738888D-02  0.309869D-02 -0.833775D-02 -0.163584D-01 -0.627093D-01
      9 -0.378761D-02 -0.378761D-02 -0.130464D-02 -0.751311D-02 -0.193621D-01
     10 -0.258449D-01 -0.574946D-02 -0.121869D-01 -0.549593D-02  0.148151D-01
     11  0.229009D-01 -0.623844D-01 -0.805022D-02  0.148151D-01 -0.549593D-02
     12  0.944980D-02 -0.367902D-01 -0.380708D-01 -0.112522D-02  0.112522D-02
     13 -0.327655D-01 -0.265433D-01  0.160057D-01 -0.258449D-01  0.229009D-01
     14 -0.265433D-01 -0.327655D-01  0.160057D-01 -0.574946D-02 -0.623844D-01
     15 -0.160057D-01 -0.160057D-01 -0.224018D-01  0.121869D-01  0.805022D-02
     16  0.938282D-02 -0.756220D-03 -0.710118D-02 -0.320522D-01  0.959353D-02
     17  0.756220D-03  0.440164D-02  0.154286D-02  0.959353D-02 -0.320522D-01
     18 -0.710118D-02 -0.154286D-02 -0.166722D-02 -0.130035D-01  0.130035D-01
     19 -0.320522D-01 -0.959353D-02 -0.130035D-01 -0.627093D-01 -0.163584D-01
     20 -0.959353D-02 -0.320522D-01 -0.130035D-01  0.163584D-01 -0.348775D-01
     21  0.246467D-01  0.246467D-01 -0.872421D-01  0.193621D-01  0.751311D-02
     22  0.440164D-02  0.756220D-03  0.154286D-02  0.309869D-02  0.738888D-02
     23 -0.756220D-03  0.938282D-02 -0.710118D-02  0.738888D-02  0.309869D-02
     24 -0.154286D-02 -0.710118D-02 -0.166722D-02  0.833775D-02 -0.833775D-02
                6             7             8             9            10 
      6  0.213980D+00
      7  0.751311D-02  0.220265D+00
      8 -0.193621D-01  0.489490D-01  0.220265D+00
      9 -0.279422D-01  0.101947D-01  0.101947D-01  0.213980D+00
     10  0.112522D-02 -0.627093D-01  0.163584D-01 -0.193621D-01  0.220265D+00
     11 -0.112522D-02 -0.163584D-01 -0.348775D-01 -0.751311D-02 -0.489490D-01
     12  0.659302D-02 -0.193621D-01  0.751311D-02 -0.279422D-01  0.101947D-01
     13 -0.944980D-02 -0.320522D-01 -0.959353D-02 -0.246467D-01 -0.623844D-01
     14  0.367902D-01 -0.959353D-02 -0.320522D-01 -0.246467D-01  0.229009D-01
     15 -0.380708D-01  0.130035D-01  0.130035D-01 -0.872421D-01  0.805022D-02
     16  0.246467D-01 -0.258449D-01 -0.229009D-01  0.944980D-02  0.309869D-02
     17 -0.246467D-01  0.574946D-02 -0.623844D-01  0.367902D-01  0.738888D-02
     18 -0.872421D-01 -0.121869D-01  0.805022D-02 -0.380708D-01 -0.833775D-02
     19  0.193621D-01 -0.549593D-02 -0.148151D-01 -0.112522D-02 -0.348775D-01
     20 -0.751311D-02 -0.148151D-01 -0.549593D-02 -0.112522D-02 -0.163584D-01
     21 -0.279422D-01  0.112522D-02  0.112522D-02  0.659302D-02  0.751311D-02
     22  0.378761D-02 -0.623844D-01  0.574946D-02  0.367902D-01 -0.320522D-01
     23 -0.378761D-02 -0.229009D-01 -0.258449D-01  0.944980D-02  0.959353D-02
     24 -0.130464D-02  0.805022D-02 -0.121869D-01 -0.380708D-01  0.130035D-01
               11            12            13            14            15 
     11  0.220265D+00
     12 -0.101947D-01  0.213980D+00
     13 -0.574946D-02  0.367902D-01  0.136164D+00
     14 -0.258449D-01 -0.944980D-02  0.263742D-01  0.136164D+00
     15  0.121869D-01 -0.380708D-01 -0.311310D-01 -0.311310D-01  0.190425D+00
     16  0.738888D-02 -0.378761D-02  0.440164D-02  0.756220D-03 -0.154286D-02
     17  0.309869D-02  0.378761D-02 -0.756220D-03  0.938282D-02  0.710118D-02
     18  0.833775D-02 -0.130464D-02  0.154286D-02  0.710118D-02 -0.166722D-02
     19  0.163584D-01 -0.751311D-02  0.309869D-02 -0.738888D-02  0.833775D-02
     20 -0.627093D-01  0.193621D-01 -0.738888D-02  0.309869D-02  0.833775D-02
     21  0.193621D-01 -0.279422D-01  0.378761D-02  0.378761D-02 -0.130464D-02
     22  0.959353D-02 -0.246467D-01  0.938282D-02 -0.756220D-03  0.710118D-02
     23 -0.320522D-01  0.246467D-01  0.756220D-03  0.440164D-02 -0.154286D-02
     24 -0.130035D-01 -0.872421D-01  0.710118D-02  0.154286D-02 -0.166722D-02
               16            17            18            19            20 
     16  0.136164D+00
     17 -0.263742D-01  0.136164D+00
     18  0.311310D-01 -0.311310D-01  0.190425D+00
     19 -0.623844D-01 -0.229009D-01 -0.805022D-02  0.220265D+00
     20  0.574946D-02 -0.258449D-01  0.121869D-01  0.489490D-01  0.220265D+00
     21 -0.367902D-01 -0.944980D-02 -0.380708D-01 -0.101947D-01 -0.101947D-01
     22 -0.327655D-01  0.265433D-01  0.160057D-01 -0.258449D-01 -0.229009D-01
     23  0.265433D-01 -0.327655D-01 -0.160057D-01  0.574946D-02 -0.623844D-01
     24 -0.160057D-01  0.160057D-01 -0.224018D-01  0.121869D-01 -0.805022D-02
               21            22            23            24 
     21  0.213980D+00
     22 -0.944980D-02  0.136164D+00
     23 -0.367902D-01 -0.263742D-01  0.136164D+00
     24 -0.380708D-01 -0.311310D-01  0.311310D-01  0.190425D+00
 Leave Link  716 at Wed Feb 26 11:59:04 2025, MaxMem=  2097152000 cpu:               0.1 elap:               0.0
 (Enter /nvme/h/buildsets/eb_nepheli/software/Gaussian/16.C.01-AVX2/g16/l103.exe)

 GradGradGradGradGradGradGradGradGradGradGradGradGradGradGradGradGradGrad
 Berny optimization.
 Search for a local minimum.
 Step number   1 out of a maximum of    2
 All quantities printed in internal units (Hartrees-Bohrs-Radians)
 Second derivative matrix not updated -- first step.
 ITU=  0
     Eigenvalues ---    0.10097   0.13719   0.16198   0.16198   0.20196
     Eigenvalues ---    0.20498   0.21016   0.21433   0.21433   0.23110
     Eigenvalues ---    0.25699   0.31406   0.33006   0.33006   0.33308
     Eigenvalues ---    0.34872   0.34872   0.35167
 Angle between quadratic step and forces=  20.05 degrees.
 ClnCor:  largest displacement from symmetrization is 1.50D-10 for atom     3.
 Linear search not attempted -- first point.
 ClnCor:  largest displacement from symmetrization is 4.44D-16 for atom     1.
 B after Tr=     0.000000   -0.000000    0.000000
         Rot=    1.000000   -0.000000   -0.000000    0.000000 Ang=   0.00 deg.
 Variable       Old X    -DE/DX   Delta X   Delta X   Delta X     New X
                                 (Linear)    (Quad)   (Total)
    X1        2.01897   0.00005   0.00000   0.00023   0.00023   2.01920
    Y1        2.01897   0.00005   0.00000   0.00023   0.00023   2.01920
    Z1        4.03726  -0.00020   0.00000  -0.00122  -0.00122   4.03604
    X2       -2.49162   0.00007   0.00000   0.00022   0.00022  -2.49141
    Y2        2.49162  -0.00007   0.00000  -0.00022  -0.00022   2.49141
    Z2        1.13576  -0.00017   0.00000  -0.00046  -0.00046   1.13531
    X3       -2.49162   0.00007   0.00000   0.00022   0.00022  -2.49141
    Y3       -2.49162   0.00007   0.00000   0.00022   0.00022  -2.49141
    Z3       -1.13576   0.00017   0.00000   0.00046   0.00046  -1.13531
    X4        2.49162  -0.00007   0.00000  -0.00022  -0.00022   2.49141
    Y4       -2.49162   0.00007   0.00000   0.00022   0.00022  -2.49141
    Z4        1.13576  -0.00017   0.00000  -0.00046  -0.00046   1.13531
    X5       -2.01897  -0.00005   0.00000  -0.00023  -0.00023  -2.01920
    Y5       -2.01897  -0.00005   0.00000  -0.00023  -0.00023  -2.01920
    Z5        4.03726  -0.00020   0.00000  -0.00122  -0.00122   4.03604
    X6       -2.01897  -0.00005   0.00000  -0.00023  -0.00023  -2.01920
    Y6        2.01897   0.00005   0.00000   0.00023   0.00023   2.01920
    Z6       -4.03726   0.00020   0.00000   0.00122   0.00122  -4.03604
    X7        2.49162  -0.00007   0.00000  -0.00022  -0.00022   2.49141
    Y7        2.49162  -0.00007   0.00000  -0.00022  -0.00022   2.49141
    Z7       -1.13576   0.00017   0.00000   0.00046   0.00046  -1.13531
    X8        2.01897   0.00005   0.00000   0.00023   0.00023   2.01920
    Y8       -2.01897  -0.00005   0.00000  -0.00023  -0.00023  -2.01920
    Z8       -4.03726   0.00020   0.00000   0.00122   0.00122  -4.03604
         Item               Value     Threshold  Converged?
 Maximum Force            0.000200     0.000450     YES
 RMS     Force            0.000118     0.000300     YES
 Maximum Displacement     0.001221     0.001800     YES
 RMS     Displacement     0.000562     0.001200     YES
 Predicted change in Energy=-7.507062D-07
 Optimization completed.
    -- Stationary point found.
 GradGradGradGradGradGradGradGradGradGradGradGradGradGradGradGradGradGrad

 Leave Link  103 at Wed Feb 26 11:59:05 2025, MaxMem=  2097152000 cpu:               0.2 elap:               0.1
 (Enter /nvme/h/buildsets/eb_nepheli/software/Gaussian/16.C.01-AVX2/g16/l9999.exe)
 Unable to Open any file for archive entry.
 1\1\GINC-NE07\Force\RwB97XD\def2SVP\Ag8\NPATSALIDIS\26-Feb-2025\0\\#p 
 wb97xd/def2SVP scf(xqc) scfcyc=999 force\\Template file\\0,1\Ag,1.0683
 94,1.068394,2.136427\Ag,-1.318511,1.318511,0.60102\Ag,-1.318511,-1.318
 511,-0.60102\Ag,1.318511,-1.318511,0.60102\Ag,-1.068394,-1.068394,2.13
 6427\Ag,-1.068394,1.068394,-2.136427\Ag,1.318511,1.318511,-0.60102\Ag,
 1.068394,-1.068394,-2.136427\\Version=ES64L-G16RevC.01\State=1-A1\HF=-
 1176.2317646\RMSD=2.103e-09\RMSF=1.185e-04\Dipole=0.,0.,0.\Quadrupole=
 -4.0633848,-4.0633848,8.1267696,0.,0.,0.\PG=D02D [2SGD(Ag4)]\\@
 The archive entry for this job was punched.


 THE FIRST MORNING OF CREATION WROTE WHAT THE LAST DAWN OF
 RECKONING SHALL READ. -- OMAR KHAYYAM
 Job cpu time:       0 days  0 hours  1 minutes 38.8 seconds.
 Elapsed time:       0 days  0 hours  0 minutes 25.5 seconds.
 File lengths (MBytes):  RWF=     35 Int=      0 D2E=      0 Chk=      5 Scr=      1
 Normal termination of Gaussian 16 at Wed Feb 26 11:59:05 2025.
