 Entering Gaussian System, Link 0=g16
 Initial command:
 /nvme/h/buildsets/eb_nepheli/software/Gaussian/16.C.01-AVX2/g16/l1.exe "/onyx/data/simea/nikolas/postDoc/Active-Learning-Package/Ag8CO/init_data/Gau-88604.inp" -scrdir="/onyx/data/simea/nikolas/postDoc/Active-Learning-Package/Ag8CO/init_data/"
 Entering Link 1 = /nvme/h/buildsets/eb_nepheli/software/Gaussian/16.C.01-AVX2/g16/l1.exe PID=     88605.
  
 Copyright (c) 1988-2019, Gaussian, Inc.  All Rights Reserved.
  
 This is part of the Gaussian(R) 16 program.  It is based on
 the Gaussian(R) 09 system (copyright 2009, Gaussian, Inc.),
 the Gaussian(R) 03 system (copyright 2003, Gaussian, Inc.),
 the Gaussian(R) 98 system (copyright 1998, Gaussian, Inc.),
 the Gaussian(R) 94 system (copyright 1995, Gaussian, Inc.),
 the Gaussian 92(TM) system (copyright 1992, Gaussian, Inc.),
 the Gaussian 90(TM) system (copyright 1990, Gaussian, Inc.),
 the Gaussian 88(TM) system (copyright 1988, Gaussian, Inc.),
 the Gaussian 86(TM) system (copyright 1986, Carnegie Mellon
 University), and the Gaussian 82(TM) system (copyright 1983,
 Carnegie Mellon University). Gaussian is a federally registered
 trademark of Gaussian, Inc.
  
 This software contains proprietary and confidential information,
 including trade secrets, belonging to Gaussian, Inc.
  
 This software is provided under written license and may be
 used, copied, transmitted, or stored only in accord with that
 written license.
  
 The following legend is applicable only to US Government
 contracts under FAR:
  
                    RESTRICTED RIGHTS LEGEND
  
 Use, reproduction and disclosure by the US Government is
 subject to restrictions as set forth in subparagraphs (a)
 and (c) of the Commercial Computer Software - Restricted
 Rights clause in FAR 52.227-19.
  
 Gaussian, Inc.
 340 Quinnipiac St., Bldg. 40, Wallingford CT 06492
  
  
 ---------------------------------------------------------------
 Warning -- This program may not be used in any manner that
 competes with the business of Gaussian, Inc. or will provide
 assistance to any competitor of Gaussian, Inc.  The licensee
 of this program is prohibited from giving any competitor of
 Gaussian, Inc. access to this program.  By using this program,
 the user acknowledges that Gaussian, Inc. is engaged in the
 business of creating and licensing software in the field of
 computational chemistry and represents and warrants to the
 licensee that it is not a competitor of Gaussian, Inc. and that
 it will not use this program in any manner prohibited above.
 ---------------------------------------------------------------
  

 Cite this work as:
 Gaussian 16, Revision C.01,
 M. J. Frisch, G. W. Trucks, H. B. Schlegel, G. E. Scuseria, 
 M. A. Robb, J. R. Cheeseman, G. Scalmani, V. Barone, 
 G. A. Petersson, H. Nakatsuji, X. Li, M. Caricato, A. V. Marenich, 
 J. Bloino, B. G. Janesko, R. Gomperts, B. Mennucci, H. P. Hratchian, 
 J. V. Ortiz, A. F. Izmaylov, J. L. Sonnenberg, D. Williams-Young, 
 F. Ding, F. Lipparini, F. Egidi, J. Goings, B. Peng, A. Petrone, 
 T. Henderson, D. Ranasinghe, V. G. Zakrzewski, J. Gao, N. Rega, 
 G. Zheng, W. Liang, M. Hada, M. Ehara, K. Toyota, R. Fukuda, 
 J. Hasegawa, M. Ishida, T. Nakajima, Y. Honda, O. Kitao, H. Nakai, 
 T. Vreven, K. Throssell, J. A. Montgomery, Jr., J. E. Peralta, 
 F. Ogliaro, M. J. Bearpark, J. J. Heyd, E. N. Brothers, K. N. Kudin, 
 V. N. Staroverov, T. A. Keith, R. Kobayashi, J. Normand, 
 K. Raghavachari, A. P. Rendell, J. C. Burant, S. S. Iyengar, 
 J. Tomasi, M. Cossi, J. M. Millam, M. Klene, C. Adamo, R. Cammi, 
 J. W. Ochterski, R. L. Martin, K. Morokuma, O. Farkas, 
 J. B. Foresman, and D. J. Fox, Gaussian, Inc., Wallingford CT, 2019.
 
 ******************************************
 Gaussian 16:  ES64L-G16RevC.01  3-Jul-2019
                26-Feb-2025 
 ******************************************
 %nprocshared=4
 Will use up to    4 processors via shared memory.
 %mem=8000MB
 -------------------------------------------
 #p wb97xd/def2SVP scf(xqc) scfcyc=999 force
 -------------------------------------------
 1/10=7,30=1,38=1/1,3;
 2/12=2,17=6,18=5,40=1/2;
 3/5=43,7=101,11=2,25=1,30=1,71=1,74=-58/1,2,3;
 4//1;
 5/5=2,7=999,8=3,13=1,38=5/2,8;
 6/7=2,8=2,9=2,10=2,28=1/1;
 7/29=1/1,2,3,16;
 1/10=7,30=1/3;
 99//99;
 Leave Link    1 at Wed Feb 26 00:55:22 2025, MaxMem=  1048576000 cpu:               0.3 elap:               0.1
 (Enter /nvme/h/buildsets/eb_nepheli/software/Gaussian/16.C.01-AVX2/g16/l101.exe)
 -------------
 Template file
 -------------
 Symbolic Z-matrix:
 Charge =  0 Multiplicity = 1
 Ag                   -0.08855   0.0194    0.17799 
 Ag                    0.1429    0.06901   3.00302 
 Ag                    2.4652    0.08787   1.27241 
 Ag                    2.00792   2.2756    3.17367 
 Ag                    1.35667   2.54431   0.43997 
 Ag                   -0.65673   2.7513    2.54594 
 Ag                   -2.34118   0.52815   1.87217 
 Ag                   -1.33209   2.54514  -0.20363 
 C                    -4.52077   0.11803   1.88442 
 O                    -5.60998  -0.14147   2.00193 
 
 ITRead=  0  0  0  0  0  0  0  0  0  0
 MicOpt= -1 -1 -1 -1 -1 -1 -1 -1 -1 -1
 NAtoms=     10 NQM=       10 NQMF=       0 NMMI=      0 NMMIF=      0
                NMic=       0 NMicF=      0.
                    Isotopes and Nuclear Properties:
 (Nuclear quadrupole moments (NQMom) in fm**2, nuclear magnetic moments (NMagM)
  in nuclear magnetons)

  Atom         1           2           3           4           5           6           7           8           9          10
 IAtWgt=         107         107         107         107         107         107         107         107          12          16
 AtmWgt= 106.9050900 106.9050900 106.9050900 106.9050900 106.9050900 106.9050900 106.9050900 106.9050900  12.0000000  15.9949146
 NucSpn=           1           1           1           1           1           1           1           1           0           0
 AtZEff=  -0.0000000  -0.0000000  -0.0000000  -0.0000000  -0.0000000  -0.0000000  -0.0000000  -0.0000000  -0.0000000  -0.0000000
 NQMom=    0.0000000   0.0000000   0.0000000   0.0000000   0.0000000   0.0000000   0.0000000   0.0000000   0.0000000   0.0000000
 NMagM=   -0.1135700  -0.1135700  -0.1135700  -0.1135700  -0.1135700  -0.1135700  -0.1135700  -0.1135700   0.0000000   0.0000000
 AtZNuc=  47.0000000  47.0000000  47.0000000  47.0000000  47.0000000  47.0000000  47.0000000  47.0000000   6.0000000   8.0000000
 Leave Link  101 at Wed Feb 26 00:55:22 2025, MaxMem=  1048576000 cpu:               0.2 elap:               0.1
 (Enter /nvme/h/buildsets/eb_nepheli/software/Gaussian/16.C.01-AVX2/g16/l103.exe)

 GradGradGradGradGradGradGradGradGradGradGradGradGradGradGradGradGradGrad
 Berny optimization.
 Initialization pass.
 Trust Radius=3.00D-01 FncErr=1.00D-07 GrdErr=1.00D-07 EigMax=2.50D+02 EigMin=1.00D-04
 Number of steps in this run=      2 maximum allowed number of steps=      2.
 GradGradGradGradGradGradGradGradGradGradGradGradGradGradGradGradGradGrad

 Leave Link  103 at Wed Feb 26 00:55:22 2025, MaxMem=  1048576000 cpu:               0.0 elap:               0.0
 (Enter /nvme/h/buildsets/eb_nepheli/software/Gaussian/16.C.01-AVX2/g16/l202.exe)
                          Input orientation:                          
 ---------------------------------------------------------------------
 Center     Atomic      Atomic             Coordinates (Angstroms)
 Number     Number       Type             X           Y           Z
 ---------------------------------------------------------------------
      1         47           0       -0.088551    0.019402    0.177992
      2         47           0        0.142903    0.069010    3.003017
      3         47           0        2.465199    0.087869    1.272414
      4         47           0        2.007918    2.275603    3.173671
      5         47           0        1.356673    2.544312    0.439967
      6         47           0       -0.656728    2.751302    2.545940
      7         47           0       -2.341179    0.528152    1.872166
      8         47           0       -1.332091    2.545136   -0.203630
      9          6           0       -4.520770    0.118031    1.884417
     10          8           0       -5.609977   -0.141469    2.001933
 ---------------------------------------------------------------------
                    Distance matrix (angstroms):
                    1          2          3          4          5
     1  Ag   0.000000
     2  Ag   2.834925   0.000000
     3  Ag   2.779224   2.896274   0.000000
     4  Ag   4.296477   2.894211   2.934291   0.000000
     5  Ag   2.921040   3.764251   2.820622   2.823024   0.000000
     6  Ag   3.659683   2.836022   4.296763   2.778610   2.920916
     7  Ag   2.864155   2.767724   4.863622   4.864375   4.448618
     8  Ag   2.841014   4.311542   4.757760   4.757570   2.764719
     9  C    4.750387   4.796198   7.012790   6.995789   6.520553
    10  O    5.817111   5.843124   8.111305   8.077594   7.628065
                    6          7          8          9         10
     6  Ag   0.000000
     7  Ag   2.869450   0.000000
     8  Ag   2.838795   3.065194   0.000000
     9  C    4.722558   2.217874   4.518678   0.000000
    10  O    5.761835   3.339202   5.512047   1.125843   0.000000
 Stoichiometry    CAg8O
 Framework group  C1[X(CAg8O)]
 Deg. of freedom    24
 Full point group                 C1      NOp   1
 Largest Abelian subgroup         C1      NOp   1
 Largest concise Abelian subgroup C1      NOp   1
                         Standard orientation:                         
 ---------------------------------------------------------------------
 Center     Atomic      Atomic             Coordinates (Angstroms)
 Number     Number       Type             X           Y           Z
 ---------------------------------------------------------------------
      1         47           0       -0.370446    0.217535   -1.831412
      2         47           0        0.151288   -1.905144   -0.026190
      3         47           0        2.273454   -0.555826   -1.462908
      4         47           0        2.254472   -0.596941    1.471034
      5         47           0        1.361836    1.658745    0.027239
      6         47           0       -0.391967    0.170959    1.827911
      7         47           0       -2.369624   -0.762652   -0.029772
      8         47           0       -1.362096    2.131814    0.018864
      9          6           0       -4.568401   -1.052120   -0.006219
     10          8           0       -5.661838   -1.317042    0.035411
 ---------------------------------------------------------------------
 Rotational constants (GHZ):           0.2000469           0.1243044           0.1192053
 Leave Link  202 at Wed Feb 26 00:55:22 2025, MaxMem=  1048576000 cpu:               0.0 elap:               0.0
 (Enter /nvme/h/buildsets/eb_nepheli/software/Gaussian/16.C.01-AVX2/g16/l301.exe)
 Standard basis: def2SVP (5D, 7F)
 Ernie: Thresh=  0.10000D-02 Tol=  0.10000D-05 Strict=F.
 There are   318 symmetry adapted cartesian basis functions of A   symmetry.
 There are   276 symmetry adapted basis functions of A   symmetry.
   276 basis functions,   570 primitive gaussians,   318 cartesian basis functions
    83 alpha electrons       83 beta electrons
       nuclear repulsion energy      1880.0142700526 Hartrees.
 IExCor= 4639 DFT=T Ex+Corr=wB97XD ExCW=0 ScaHFX=  1.000000
 ScaDFX=  1.000000  1.000000  1.000000  1.000000 ScalE2=  1.000000  1.000000
 IRadAn=      5 IRanWt=     -1 IRanGd=            0 ICorTp=0 IEmpDi=121
 HFx  wShort=  0.000000 wLong=  0.200000 cFull=  0.222036 cShort=  0.000000 cLong=  0.777964
 DFx  wShort=  0.000000 wLong=  0.200000 cFull=  0.000000 cShort=  0.000000 cLong=  1.000000
 NAtoms=   10 NActive=   10 NUniq=   10 SFac= 1.00D+00 NAtFMM=   60 NAOKFM=F Big=F
 Integral buffers will be    131072 words long.
 Raffenetti 2 integral format.
 Two-electron integral symmetry is turned on.
 R6Disp:  Grimme-D2 Dispersion energy=       -0.0220136938 Hartrees.
 Nuclear repulsion after empirical dispersion term =     1879.9922563588 Hartrees.
 Leave Link  301 at Wed Feb 26 00:55:23 2025, MaxMem=  1048576000 cpu:               0.1 elap:               0.0
 (Enter /nvme/h/buildsets/eb_nepheli/software/Gaussian/16.C.01-AVX2/g16/l302.exe)
 NPDir=0 NMtPBC=     1 NCelOv=     1 NCel=       1 NClECP=     1 NCelD=      1
         NCelK=      1 NCelE2=     1 NClLst=     1 CellRange=     0.0.
 One-electron integrals computed using PRISM.
 One-electron integral symmetry used in STVInt
   1 Symmetry operations used in ECPInt.
 ECPInt:  NShTT=    5050 NPrTT=   15722 LenC2=    4822 LenP2D=   12521.
 LDataN:  DoStor=T MaxTD1= 7 Len=  274
 NBasis=   276 RedAO= T EigKep=  2.72D-04  NBF=   276
 NBsUse=   276 1.00D-06 EigRej= -1.00D+00 NBFU=   276
 Precomputing XC quadrature grid using
 IXCGrd= 4 IRadAn=           5 IRanWt=          -1 IRanGd=           0 AccXCQ= 0.00D+00.
 Defaulting to unpruned grid for atomic number  47.
 Defaulting to unpruned grid for atomic number  47.
 Defaulting to unpruned grid for atomic number  47.
 Generated NRdTot=       0 NPtTot=           0 NUsed=           0 NTot=          32
 NSgBfM=   316   316   316   316   316 MxSgAt=    10 MxSgA2=    10.
 Leave Link  302 at Wed Feb 26 00:55:24 2025, MaxMem=  1048576000 cpu:               5.0 elap:               1.3
 (Enter /nvme/h/buildsets/eb_nepheli/software/Gaussian/16.C.01-AVX2/g16/l303.exe)
 DipDrv:  MaxL=1.
 Leave Link  303 at Wed Feb 26 00:55:24 2025, MaxMem=  1048576000 cpu:               0.1 elap:               0.0
 (Enter /nvme/h/buildsets/eb_nepheli/software/Gaussian/16.C.01-AVX2/g16/l401.exe)
 ExpMin= 3.75D-02 ExpMax= 2.27D+03 ExpMxC= 3.41D+02 IAcc=3 IRadAn=         5 AccDes= 0.00D+00
 Harris functional with IExCor= 4639 and IRadAn=       5 diagonalized for initial guess.
 HarFok:  IExCor= 4639 AccDes= 0.00D+00 IRadAn=         5 IDoV= 1 UseB2=F ITyADJ=14
 ICtDFT=  3500011 ScaDFX=  1.000000  1.000000  1.000000  1.000000
 Defaulting to unpruned grid for atomic number  47.
 FoFCou: FMM=F IPFlag=           0 FMFlag=      100000 FMFlg1=           0
         NFxFlg=           0 DoJE=T BraDBF=F KetDBF=T FulRan=T
         wScrn=  0.000000 ICntrl=       500 IOpCl=  0 I1Cent=   200000004 NGrid=           0
         NMat0=    1 NMatS0=      1 NMatT0=    0 NMatD0=    1 NMtDS0=    0 NMtDT0=    0
 Petite list used in FoFCou.
 Harris En= -1253.87583750235    
 JPrj=0 DoOrth=F DoCkMO=F.
 Leave Link  401 at Wed Feb 26 00:55:26 2025, MaxMem=  1048576000 cpu:               6.1 elap:               1.6
 (Enter /nvme/h/buildsets/eb_nepheli/software/Gaussian/16.C.01-AVX2/g16/l502.exe)
 Integral symmetry usage will be decided dynamically.
 Closed shell SCF:
 Using DIIS extrapolation, IDIIS=  1040.
 NGot=  1048576000 LenX=  1048368834 LenY=  1048267269
 Requested convergence on RMS density matrix=1.00D-08 within 128 cycles.
 Requested convergence on MAX density matrix=1.00D-06.
 Requested convergence on             energy=1.00D-06.
 No special actions if energy rises.
 Fock matrices will be formed incrementally for  20 cycles.

 Cycle   1  Pass 1  IDiag  1:
 FoFJK:  IHMeth= 1 ICntrl=       0 DoSepK=T KAlg= 0 I1Cent=           0 FoldK=F
 IRaf=         1 NMat=       1 IRICut=       1 DoRegI=T DoRafI=F ISym2E= 0 IDoP0=0 IntGTp=1.
 FoFCou: FMM=F IPFlag=           0 FMFlag=      100000 FMFlg1=           0
         NFxFlg=           0 DoJE=T BraDBF=F KetDBF=F FulRan=T
         wScrn=  0.000000 ICntrl=       500 IOpCl=  0 I1Cent=           0 NGrid=           0
         NMat0=    1 NMatS0=      1 NMatT0=    0 NMatD0=    1 NMtDS0=    0 NMtDT0=    0
 Symmetry not used in FoFCou.
 Defaulting to unpruned grid for atomic number  47.
 Defaulting to unpruned grid for atomic number  47.
 Defaulting to unpruned grid for atomic number  47.
 Defaulting to unpruned grid for atomic number  47.
 E= -1277.26076349565    
 DIIS: error= 1.84D-01 at cycle   1 NSaved=   1.
 NSaved= 1 IEnMin= 1 EnMin= -1277.26076349565     IErMin= 1 ErrMin= 1.84D-01
 ErrMax= 1.84D-01  0.00D+00 EMaxC= 1.00D-01 BMatC= 1.45D+01 BMatP= 1.45D+01
 IDIUse=3 WtCom= 0.00D+00 WtEn= 1.00D+00
 Coeff-Com:  0.100D+01
 Coeff-En:   0.100D+01
 Coeff:      0.100D+01
 Gap=     0.445 Goal=   None    Shift=    0.000
 GapD=    0.445 DampG=2.000 DampE=0.125 DampFc=0.2500 IDamp=-1.
 Damping current iteration by 2.50D-01
 RMSDP=4.12D-02 MaxDP=1.78D+00              OVMax= 7.77D-01

 Cycle   2  Pass 1  IDiag  1:
 RMSU=  1.02D-02    CP:  9.66D-01
 E= -1281.59959028711     Delta-E=       -4.338826791460 Rises=F Damp=T
 DIIS: error= 9.06D-02 at cycle   2 NSaved=   2.
 NSaved= 2 IEnMin= 2 EnMin= -1281.59959028711     IErMin= 2 ErrMin= 9.06D-02
 ErrMax= 9.06D-02  0.00D+00 EMaxC= 1.00D-01 BMatC= 3.48D+00 BMatP= 1.45D+01
 IDIUse=3 WtCom= 9.44D-02 WtEn= 9.06D-01
 Coeff-Com: -0.744D+00 0.174D+01
 Coeff-En:   0.000D+00 0.100D+01
 Coeff:     -0.703D-01 0.107D+01
 Gap=    -0.409 Goal=   None    Shift=    0.000
 RMSDP=2.52D-02 MaxDP=1.22D+00 DE=-4.34D+00 OVMax= 9.97D-01

 Cycle   3  Pass 1  IDiag  1:
 RMSU=  2.15D-02    CP:  6.71D-01  1.53D+00
 E= -1282.67957425673     Delta-E=       -1.079983969625 Rises=F Damp=F
 DIIS: error= 1.14D-01 at cycle   3 NSaved=   3.
 NSaved= 3 IEnMin= 3 EnMin= -1282.67957425673     IErMin= 2 ErrMin= 9.06D-02
 ErrMax= 1.14D-01  0.00D+00 EMaxC= 1.00D-01 BMatC= 4.65D+00 BMatP= 3.48D+00
 IDIUse=2 WtCom= 0.00D+00 WtEn= 1.00D+00
 Coeff-En:   0.000D+00 0.452D+00 0.548D+00
 Coeff:      0.000D+00 0.452D+00 0.548D+00
 Gap=     0.117 Goal=   None    Shift=    0.000
 RMSDP=1.87D-02 MaxDP=7.29D-01 DE=-1.08D+00 OVMax= 9.88D-01

 Cycle   4  Pass 1  IDiag  1:
 RMSU=  1.69D-02    CP:  6.27D-01  1.40D+00  6.38D-01
 E= -1267.56618082310     Delta-E=       15.113393433636 Rises=F Damp=F
 DIIS: error= 1.05D-01 at cycle   4 NSaved=   4.
 NSaved= 4 IEnMin= 3 EnMin= -1282.67957425673     IErMin= 2 ErrMin= 9.06D-02
 ErrMax= 1.05D-01  0.00D+00 EMaxC= 1.00D-01 BMatC= 4.70D+00 BMatP= 3.48D+00
 IDIUse=2 WtCom= 0.00D+00 WtEn= 1.00D+00
 EnCoef did   100 forward-backward iterations
 Coeff-En:   0.132D+00 0.143D-01 0.609D+00 0.245D+00
 Coeff:      0.132D+00 0.143D-01 0.609D+00 0.245D+00
 Gap=     0.042 Goal=   None    Shift=    0.000
 RMSDP=1.37D-02 MaxDP=7.40D-01 DE= 1.51D+01 OVMax= 9.88D-01

 Cycle   5  Pass 1  IDiag  1:
 RMSU=  9.29D-03    CP:  6.03D-01  9.38D-01  6.86D-01  4.77D-01
 E= -1288.98827421307     Delta-E=      -21.422093389971 Rises=F Damp=F
 DIIS: error= 4.63D-02 at cycle   5 NSaved=   5.
 NSaved= 5 IEnMin= 5 EnMin= -1288.98827421307     IErMin= 5 ErrMin= 4.63D-02
 ErrMax= 4.63D-02  0.00D+00 EMaxC= 1.00D-01 BMatC= 3.91D-01 BMatP= 3.48D+00
 IDIUse=3 WtCom= 5.37D-01 WtEn= 4.63D-01
 Coeff-Com: -0.171D+00 0.413D+00 0.188D+00 0.754D-02 0.563D+00
 Coeff-En:   0.000D+00 0.000D+00 0.000D+00 0.000D+00 0.100D+01
 Coeff:     -0.919D-01 0.222D+00 0.101D+00 0.405D-02 0.765D+00
 Gap=     0.201 Goal=   None    Shift=    0.000
 RMSDP=4.79D-03 MaxDP=3.04D-01 DE=-2.14D+01 OVMax= 2.60D-01

 Cycle   6  Pass 1  IDiag  1:
 RMSU=  4.05D-03    CP:  6.19D-01  1.05D+00  7.37D-01  4.07D-01  8.38D-01
 E= -1289.18896171806     Delta-E=       -0.200687504992 Rises=F Damp=F
 DIIS: error= 4.08D-02 at cycle   6 NSaved=   6.
 NSaved= 6 IEnMin= 6 EnMin= -1289.18896171806     IErMin= 6 ErrMin= 4.08D-02
 ErrMax= 4.08D-02  0.00D+00 EMaxC= 1.00D-01 BMatC= 3.05D-01 BMatP= 3.91D-01
 IDIUse=3 WtCom= 5.92D-01 WtEn= 4.08D-01
 Coeff-Com:  0.101D-01-0.219D-01 0.472D-01-0.472D-02 0.494D+00 0.475D+00
 Coeff-En:   0.000D+00 0.000D+00 0.000D+00 0.000D+00 0.331D+00 0.669D+00
 Coeff:      0.601D-02-0.130D-01 0.280D-01-0.280D-02 0.428D+00 0.554D+00
 Gap=     0.205 Goal=   None    Shift=    0.000
 RMSDP=2.67D-03 MaxDP=1.20D-01 DE=-2.01D-01 OVMax= 1.51D-01

 Cycle   7  Pass 1  IDiag  1:
 RMSU=  1.77D-03    CP:  6.07D-01  9.40D-01  7.19D-01  4.36D-01  9.47D-01
                    CP:  7.40D-01
 E= -1289.41692819243     Delta-E=       -0.227966474366 Rises=F Damp=F
 DIIS: error= 1.01D-02 at cycle   7 NSaved=   7.
 NSaved= 7 IEnMin= 7 EnMin= -1289.41692819243     IErMin= 7 ErrMin= 1.01D-02
 ErrMax= 1.01D-02  0.00D+00 EMaxC= 1.00D-01 BMatC= 1.41D-02 BMatP= 3.05D-01
 IDIUse=3 WtCom= 8.99D-01 WtEn= 1.01D-01
 Coeff-Com: -0.186D-02 0.494D-02-0.804D-02-0.565D-02 0.217D-01 0.189D+00
 Coeff-Com:  0.800D+00
 Coeff-En:   0.000D+00 0.000D+00 0.000D+00 0.000D+00 0.000D+00 0.000D+00
 Coeff-En:   0.100D+01
 Coeff:     -0.167D-02 0.444D-02-0.723D-02-0.508D-02 0.195D-01 0.170D+00
 Coeff:      0.820D+00
 Gap=     0.192 Goal=   None    Shift=    0.000
 RMSDP=6.57D-04 MaxDP=2.74D-02 DE=-2.28D-01 OVMax= 3.62D-02

 Cycle   8  Pass 1  IDiag  1:
 RMSU=  5.69D-04    CP:  6.08D-01  9.37D-01  7.20D-01  4.30D-01  9.48D-01
                    CP:  8.06D-01  1.08D+00
 E= -1289.42755146647     Delta-E=       -0.010623274044 Rises=F Damp=F
 DIIS: error= 3.54D-03 at cycle   8 NSaved=   8.
 NSaved= 8 IEnMin= 8 EnMin= -1289.42755146647     IErMin= 8 ErrMin= 3.54D-03
 ErrMax= 3.54D-03  0.00D+00 EMaxC= 1.00D-01 BMatC= 2.15D-03 BMatP= 1.41D-02
 IDIUse=3 WtCom= 9.65D-01 WtEn= 3.54D-02
 Coeff-Com:  0.464D-02-0.101D-01-0.491D-02 0.728D-03-0.196D-01 0.251D-01
 Coeff-Com:  0.374D+00 0.630D+00
 Coeff-En:   0.000D+00 0.000D+00 0.000D+00 0.000D+00 0.000D+00 0.000D+00
 Coeff-En:   0.000D+00 0.100D+01
 Coeff:      0.448D-02-0.978D-02-0.474D-02 0.702D-03-0.189D-01 0.242D-01
 Coeff:      0.361D+00 0.643D+00
 Gap=     0.192 Goal=   None    Shift=    0.000
 RMSDP=2.72D-04 MaxDP=1.42D-02 DE=-1.06D-02 OVMax= 1.23D-02

 Cycle   9  Pass 1  IDiag  1:
 RMSU=  1.84D-04    CP:  6.08D-01  9.30D-01  7.19D-01  4.31D-01  9.49D-01
                    CP:  8.18D-01  1.18D+00  8.95D-01
 E= -1289.42933226573     Delta-E=       -0.001780799259 Rises=F Damp=F
 DIIS: error= 8.53D-04 at cycle   9 NSaved=   9.
 NSaved= 9 IEnMin= 9 EnMin= -1289.42933226573     IErMin= 9 ErrMin= 8.53D-04
 ErrMax= 8.53D-04  0.00D+00 EMaxC= 1.00D-01 BMatC= 2.02D-04 BMatP= 2.15D-03
 IDIUse=3 WtCom= 9.91D-01 WtEn= 8.53D-03
 Coeff-Com: -0.208D-02 0.197D-02-0.930D-03 0.764D-03-0.105D-01-0.142D-01
 Coeff-Com:  0.379D-01 0.271D+00 0.716D+00
 Coeff-En:   0.000D+00 0.000D+00 0.000D+00 0.000D+00 0.000D+00 0.000D+00
 Coeff-En:   0.000D+00 0.000D+00 0.100D+01
 Coeff:     -0.206D-02 0.196D-02-0.922D-03 0.758D-03-0.104D-01-0.141D-01
 Coeff:      0.375D-01 0.269D+00 0.719D+00
 Gap=     0.192 Goal=   None    Shift=    0.000
 RMSDP=9.83D-05 MaxDP=2.98D-03 DE=-1.78D-03 OVMax= 7.11D-03

 Cycle  10  Pass 1  IDiag  1:
 RMSU=  7.45D-05    CP:  6.07D-01  9.31D-01  7.20D-01  4.31D-01  9.49D-01
                    CP:  8.18D-01  1.20D+00  9.85D-01  9.95D-01
 E= -1289.42956430873     Delta-E=       -0.000232042999 Rises=F Damp=F
 DIIS: error= 4.53D-04 at cycle  10 NSaved=  10.
 NSaved=10 IEnMin=10 EnMin= -1289.42956430873     IErMin=10 ErrMin= 4.53D-04
 ErrMax= 4.53D-04  0.00D+00 EMaxC= 1.00D-01 BMatC= 2.80D-05 BMatP= 2.02D-04
 IDIUse=3 WtCom= 9.95D-01 WtEn= 4.53D-03
 Coeff-Com: -0.167D-02 0.292D-02-0.628D-03 0.169D-03 0.142D-02-0.246D-02
 Coeff-Com: -0.414D-01 0.260D-02 0.146D+00 0.893D+00
 Coeff-En:   0.000D+00 0.000D+00 0.000D+00 0.000D+00 0.000D+00 0.000D+00
 Coeff-En:   0.000D+00 0.000D+00 0.000D+00 0.100D+01
 Coeff:     -0.166D-02 0.291D-02-0.626D-03 0.169D-03 0.141D-02-0.245D-02
 Coeff:     -0.412D-01 0.259D-02 0.145D+00 0.893D+00
 Gap=     0.193 Goal=   None    Shift=    0.000
 RMSDP=5.08D-05 MaxDP=1.53D-03 DE=-2.32D-04 OVMax= 3.77D-03

 Cycle  11  Pass 1  IDiag  1:
 RMSU=  2.58D-05    CP:  6.07D-01  9.32D-01  7.20D-01  4.32D-01  9.49D-01
                    CP:  8.19D-01  1.20D+00  1.02D+00  1.15D+00  1.31D+00
 E= -1289.42960990897     Delta-E=       -0.000045600247 Rises=F Damp=F
 DIIS: error= 1.70D-04 at cycle  11 NSaved=  11.
 NSaved=11 IEnMin=11 EnMin= -1289.42960990897     IErMin=11 ErrMin= 1.70D-04
 ErrMax= 1.70D-04  0.00D+00 EMaxC= 1.00D-01 BMatC= 6.37D-06 BMatP= 2.80D-05
 IDIUse=3 WtCom= 9.98D-01 WtEn= 1.70D-03
 Coeff-Com: -0.336D-03 0.938D-03-0.504D-03-0.101D-03 0.262D-02 0.128D-02
 Coeff-Com: -0.170D-01-0.191D-01-0.605D-01 0.191D+00 0.902D+00
 Coeff-En:   0.000D+00 0.000D+00 0.000D+00 0.000D+00 0.000D+00 0.000D+00
 Coeff-En:   0.000D+00 0.000D+00 0.000D+00 0.000D+00 0.100D+01
 Coeff:     -0.336D-03 0.936D-03-0.503D-03-0.101D-03 0.262D-02 0.127D-02
 Coeff:     -0.169D-01-0.191D-01-0.604D-01 0.191D+00 0.902D+00
 Gap=     0.193 Goal=   None    Shift=    0.000
 RMSDP=2.54D-05 MaxDP=6.93D-04 DE=-4.56D-05 OVMax= 2.13D-03

 Cycle  12  Pass 1  IDiag  1:
 RMSU=  1.23D-05    CP:  6.07D-01  9.31D-01  7.20D-01  4.32D-01  9.49D-01
                    CP:  8.19D-01  1.21D+00  1.04D+00  1.18D+00  1.49D+00
                    CP:  1.41D+00
 E= -1289.42962152847     Delta-E=       -0.000011619497 Rises=F Damp=F
 DIIS: error= 4.71D-05 at cycle  12 NSaved=  12.
 NSaved=12 IEnMin=12 EnMin= -1289.42962152847     IErMin=12 ErrMin= 4.71D-05
 ErrMax= 4.71D-05  0.00D+00 EMaxC= 1.00D-01 BMatC= 8.50D-07 BMatP= 6.37D-06
 IDIUse=1 WtCom= 1.00D+00 WtEn= 0.00D+00
 Coeff-Com:  0.835D-06 0.245D-04-0.237D-04-0.319D-04 0.345D-03-0.859D-03
 Coeff-Com:  0.251D-02 0.113D-02-0.104D-01-0.122D+00 0.178D+00 0.952D+00
 Coeff:      0.835D-06 0.245D-04-0.237D-04-0.319D-04 0.345D-03-0.859D-03
 Coeff:      0.251D-02 0.113D-02-0.104D-01-0.122D+00 0.178D+00 0.952D+00
 Gap=     0.193 Goal=   None    Shift=    0.000
 RMSDP=1.19D-05 MaxDP=3.20D-04 DE=-1.16D-05 OVMax= 9.91D-04

 Cycle  13  Pass 1  IDiag  1:
 RMSU=  5.73D-06    CP:  6.07D-01  9.31D-01  7.20D-01  4.32D-01  9.49D-01
                    CP:  8.19D-01  1.21D+00  1.05D+00  1.20D+00  1.53D+00
                    CP:  1.68D+00  1.20D+00
 E= -1289.42962337209     Delta-E=       -0.000001843615 Rises=F Damp=F
 DIIS: error= 2.45D-05 at cycle  13 NSaved=  13.
 NSaved=13 IEnMin=13 EnMin= -1289.42962337209     IErMin=13 ErrMin= 2.45D-05
 ErrMax= 2.45D-05  0.00D+00 EMaxC= 1.00D-01 BMatC= 1.92D-07 BMatP= 8.50D-07
 IDIUse=1 WtCom= 1.00D+00 WtEn= 0.00D+00
 Coeff-Com: -0.114D-04 0.205D-05 0.546D-04-0.145D-04-0.227D-03-0.768D-03
 Coeff-Com:  0.287D-02 0.179D-02 0.425D-02-0.692D-01-0.103D-01 0.454D+00
 Coeff-Com:  0.617D+00
 Coeff:     -0.114D-04 0.205D-05 0.546D-04-0.145D-04-0.227D-03-0.768D-03
 Coeff:      0.287D-02 0.179D-02 0.425D-02-0.692D-01-0.103D-01 0.454D+00
 Coeff:      0.617D+00
 Gap=     0.193 Goal=   None    Shift=    0.000
 RMSDP=3.62D-06 MaxDP=1.84D-04 DE=-1.84D-06 OVMax= 3.24D-04

 Cycle  14  Pass 1  IDiag  1:
 RMSU=  2.88D-06    CP:  6.07D-01  9.31D-01  7.20D-01  4.32D-01  9.50D-01
                    CP:  8.19D-01  1.21D+00  1.05D+00  1.20D+00  1.54D+00
                    CP:  1.70D+00  1.33D+00  1.05D+00
 E= -1289.42962364656     Delta-E=       -0.000000274477 Rises=F Damp=F
 DIIS: error= 1.24D-05 at cycle  14 NSaved=  14.
 NSaved=14 IEnMin=14 EnMin= -1289.42962364656     IErMin=14 ErrMin= 1.24D-05
 ErrMax= 1.24D-05  0.00D+00 EMaxC= 1.00D-01 BMatC= 2.84D-08 BMatP= 1.92D-07
 IDIUse=1 WtCom= 1.00D+00 WtEn= 0.00D+00
 Coeff-Com:  0.116D-04-0.192D-04 0.242D-04-0.793D-05-0.209D-03-0.121D-03
 Coeff-Com: -0.195D-03-0.679D-03 0.357D-02 0.140D-01-0.288D-01-0.713D-01
 Coeff-Com:  0.118D+00 0.965D+00
 Coeff:      0.116D-04-0.192D-04 0.242D-04-0.793D-05-0.209D-03-0.121D-03
 Coeff:     -0.195D-03-0.679D-03 0.357D-02 0.140D-01-0.288D-01-0.713D-01
 Coeff:      0.118D+00 0.965D+00
 Gap=     0.193 Goal=   None    Shift=    0.000
 RMSDP=2.60D-06 MaxDP=9.87D-05 DE=-2.74D-07 OVMax= 2.04D-04

 Cycle  15  Pass 1  IDiag  1:
 RMSU=  1.34D-06    CP:  6.07D-01  9.31D-01  7.20D-01  4.32D-01  9.50D-01
                    CP:  8.19D-01  1.21D+00  1.05D+00  1.20D+00  1.55D+00
                    CP:  1.71D+00  1.36D+00  1.32D+00  1.42D+00
 E= -1289.42962373571     Delta-E=       -0.000000089143 Rises=F Damp=F
 DIIS: error= 3.98D-06 at cycle  15 NSaved=  15.
 NSaved=15 IEnMin=15 EnMin= -1289.42962373571     IErMin=15 ErrMin= 3.98D-06
 ErrMax= 3.98D-06  0.00D+00 EMaxC= 1.00D-01 BMatC= 6.98D-09 BMatP= 2.84D-08
 IDIUse=1 WtCom= 1.00D+00 WtEn= 0.00D+00
 Coeff-Com:  0.311D-04-0.492D-04-0.475D-06-0.115D-05-0.237D-04 0.114D-03
 Coeff-Com: -0.697D-03-0.108D-02-0.557D-03 0.181D-01-0.380D-02-0.957D-01
 Coeff-Com: -0.934D-01 0.292D+00 0.885D+00
 Coeff:      0.311D-04-0.492D-04-0.475D-06-0.115D-05-0.237D-04 0.114D-03
 Coeff:     -0.697D-03-0.108D-02-0.557D-03 0.181D-01-0.380D-02-0.957D-01
 Coeff:     -0.934D-01 0.292D+00 0.885D+00
 Gap=     0.193 Goal=   None    Shift=    0.000
 RMSDP=1.67D-06 MaxDP=5.67D-05 DE=-8.91D-08 OVMax= 1.41D-04

 Cycle  16  Pass 1  IDiag  1:
 RMSU=  6.72D-07    CP:  6.07D-01  9.31D-01  7.20D-01  4.32D-01  9.49D-01
                    CP:  8.19D-01  1.21D+00  1.05D+00  1.20D+00  1.55D+00
                    CP:  1.71D+00  1.38D+00  1.44D+00  1.78D+00  1.51D+00
 E= -1289.42962376270     Delta-E=       -0.000000026991 Rises=F Damp=F
 DIIS: error= 2.93D-06 at cycle  16 NSaved=  16.
 NSaved=16 IEnMin=16 EnMin= -1289.42962376270     IErMin=16 ErrMin= 2.93D-06
 ErrMax= 2.93D-06  0.00D+00 EMaxC= 1.00D-01 BMatC= 1.82D-09 BMatP= 6.98D-09
 IDIUse=1 WtCom= 1.00D+00 WtEn= 0.00D+00
 Coeff-Com:  0.750D-05-0.136D-04-0.158D-05 0.107D-05 0.551D-04 0.758D-04
 Coeff-Com: -0.170D-03-0.602D-03-0.186D-02 0.190D-02 0.861D-02-0.346D-02
 Coeff-Com: -0.537D-01-0.138D+00 0.301D+00 0.887D+00
 Coeff:      0.750D-05-0.136D-04-0.158D-05 0.107D-05 0.551D-04 0.758D-04
 Coeff:     -0.170D-03-0.602D-03-0.186D-02 0.190D-02 0.861D-02-0.346D-02
 Coeff:     -0.537D-01-0.138D+00 0.301D+00 0.887D+00
 Gap=     0.193 Goal=   None    Shift=    0.000
 RMSDP=9.98D-07 MaxDP=4.00D-05 DE=-2.70D-08 OVMax= 8.00D-05

 Cycle  17  Pass 1  IDiag  1:
 RMSU=  3.21D-07    CP:  6.07D-01  9.31D-01  7.20D-01  4.32D-01  9.49D-01
                    CP:  8.19D-01  1.21D+00  1.05D+00  1.20D+00  1.56D+00
                    CP:  1.71D+00  1.38D+00  1.50D+00  1.95D+00  1.93D+00
                    CP:  1.37D+00
 E= -1289.42962377045     Delta-E=       -0.000000007750 Rises=F Damp=F
 DIIS: error= 9.31D-07 at cycle  17 NSaved=  17.
 NSaved=17 IEnMin=17 EnMin= -1289.42962377045     IErMin=17 ErrMin= 9.31D-07
 ErrMax= 9.31D-07  0.00D+00 EMaxC= 1.00D-01 BMatC= 3.85D-10 BMatP= 1.82D-09
 IDIUse=1 WtCom= 1.00D+00 WtEn= 0.00D+00
 Coeff-Com: -0.470D-05 0.853D-05-0.418D-06 0.244D-06 0.276D-04 0.346D-04
 Coeff-Com:  0.757D-04-0.216D-03-0.985D-03-0.181D-02 0.440D-02 0.105D-01
 Coeff-Com: -0.975D-02-0.872D-01-0.100D-01 0.296D+00 0.799D+00
 Coeff:     -0.470D-05 0.853D-05-0.418D-06 0.244D-06 0.276D-04 0.346D-04
 Coeff:      0.757D-04-0.216D-03-0.985D-03-0.181D-02 0.440D-02 0.105D-01
 Coeff:     -0.975D-02-0.872D-01-0.100D-01 0.296D+00 0.799D+00
 Gap=     0.193 Goal=   None    Shift=    0.000
 RMSDP=4.83D-07 MaxDP=2.38D-05 DE=-7.75D-09 OVMax= 4.00D-05

 Cycle  18  Pass 1  IDiag  1:
 RMSU=  1.34D-07    CP:  6.07D-01  9.31D-01  7.20D-01  4.32D-01  9.49D-01
                    CP:  8.19D-01  1.21D+00  1.05D+00  1.20D+00  1.56D+00
                    CP:  1.70D+00  1.38D+00  1.53D+00  2.02D+00  2.08D+00
                    CP:  1.69D+00  1.37D+00
 E= -1289.42962377223     Delta-E=       -0.000000001786 Rises=F Damp=F
 DIIS: error= 5.42D-07 at cycle  18 NSaved=  18.
 NSaved=18 IEnMin=18 EnMin= -1289.42962377223     IErMin=18 ErrMin= 5.42D-07
 ErrMax= 5.42D-07  0.00D+00 EMaxC= 1.00D-01 BMatC= 9.16D-11 BMatP= 3.85D-10
 IDIUse=1 WtCom= 1.00D+00 WtEn= 0.00D+00
 Coeff-Com: -0.121D-05 0.330D-05-0.984D-06 0.140D-06-0.127D-04-0.194D-05
 Coeff-Com:  0.689D-04 0.147D-03 0.579D-03-0.392D-03-0.402D-02-0.127D-02
 Coeff-Com:  0.890D-02 0.350D-01-0.517D-01-0.224D+00-0.234D-01 0.126D+01
 Coeff:     -0.121D-05 0.330D-05-0.984D-06 0.140D-06-0.127D-04-0.194D-05
 Coeff:      0.689D-04 0.147D-03 0.579D-03-0.392D-03-0.402D-02-0.127D-02
 Coeff:      0.890D-02 0.350D-01-0.517D-01-0.224D+00-0.234D-01 0.126D+01
 Gap=     0.193 Goal=   None    Shift=    0.000
 RMSDP=3.64D-07 MaxDP=1.53D-05 DE=-1.79D-09 OVMax= 3.48D-05

 Cycle  19  Pass 1  IDiag  1:
 RMSU=  7.25D-08    CP:  6.07D-01  9.31D-01  7.20D-01  4.32D-01  9.49D-01
                    CP:  8.19D-01  1.21D+00  1.05D+00  1.20D+00  1.56D+00
                    CP:  1.70D+00  1.39D+00  1.55D+00  2.07D+00  2.21D+00
                    CP:  1.91D+00  1.83D+00  1.78D+00
 E= -1289.42962377298     Delta-E=       -0.000000000752 Rises=F Damp=F
 DIIS: error= 2.28D-07 at cycle  19 NSaved=  19.
 NSaved=19 IEnMin=19 EnMin= -1289.42962377298     IErMin=19 ErrMin= 2.28D-07
 ErrMax= 2.28D-07  0.00D+00 EMaxC= 1.00D-01 BMatC= 1.60D-11 BMatP= 9.16D-11
 IDIUse=1 WtCom= 1.00D+00 WtEn= 0.00D+00
 Coeff-Com:  0.247D-06-0.994D-06 0.218D-07 0.163D-06-0.117D-05-0.648D-05
 Coeff-Com: -0.208D-04 0.379D-04 0.221D-03 0.221D-03-0.154D-02-0.599D-04
 Coeff-Com:  0.163D-02 0.958D-02 0.331D-03-0.175D-01-0.116D+00-0.709D-01
 Coeff-Com:  0.119D+01
 Coeff:      0.247D-06-0.994D-06 0.218D-07 0.163D-06-0.117D-05-0.648D-05
 Coeff:     -0.208D-04 0.379D-04 0.221D-03 0.221D-03-0.154D-02-0.599D-04
 Coeff:      0.163D-02 0.958D-02 0.331D-03-0.175D-01-0.116D+00-0.709D-01
 Coeff:      0.119D+01
 Gap=     0.193 Goal=   None    Shift=    0.000
 RMSDP=1.31D-07 MaxDP=4.55D-06 DE=-7.52D-10 OVMax= 1.35D-05

 Cycle  20  Pass 1  IDiag  1:
 RMSU=  2.38D-08    CP:  6.07D-01  9.31D-01  7.19D-01  4.32D-01  9.49D-01
                    CP:  8.19D-01  1.21D+00  1.05D+00  1.20D+00  1.56D+00
                    CP:  1.70D+00  1.39D+00  1.56D+00  2.08D+00  2.24D+00
                    CP:  1.99D+00  1.99D+00  2.17D+00  1.65D+00
 E= -1289.42962377308     Delta-E=       -0.000000000099 Rises=F Damp=F
 DIIS: error= 1.13D-07 at cycle  20 NSaved=  20.
 NSaved=20 IEnMin=20 EnMin= -1289.42962377308     IErMin=20 ErrMin= 1.13D-07
 ErrMax= 1.13D-07  0.00D+00 EMaxC= 1.00D-01 BMatC= 2.42D-12 BMatP= 1.60D-11
 IDIUse=1 WtCom= 1.00D+00 WtEn= 0.00D+00
 Coeff-Com: -0.146D-06 0.309D-08 0.684D-07-0.750D-07 0.150D-05-0.815D-06
 Coeff-Com: -0.174D-04-0.133D-04-0.469D-04 0.207D-03 0.319D-03-0.769D-04
 Coeff-Com: -0.197D-02-0.328D-02 0.122D-01 0.306D-01-0.456D-01-0.186D+00
 Coeff-Com:  0.293D+00 0.900D+00
 Coeff:     -0.146D-06 0.309D-08 0.684D-07-0.750D-07 0.150D-05-0.815D-06
 Coeff:     -0.174D-04-0.133D-04-0.469D-04 0.207D-03 0.319D-03-0.769D-04
 Coeff:     -0.197D-02-0.328D-02 0.122D-01 0.306D-01-0.456D-01-0.186D+00
 Coeff:      0.293D+00 0.900D+00
 Gap=     0.193 Goal=   None    Shift=    0.000
 RMSDP=3.98D-08 MaxDP=1.35D-06 DE=-9.87D-11 OVMax= 4.76D-06

 Cycle  21  Pass 1  IDiag  1:
 Restarting incremental Fock formation.
 E= -1289.42962377321     Delta-E=       -0.000000000131 Rises=F Damp=F
 DIIS: error= 4.38D-08 at cycle  21 NSaved=  20.
 NSaved=20 IEnMin=20 EnMin= -1289.42962377321     IErMin=20 ErrMin= 4.38D-08
 ErrMax= 4.38D-08  0.00D+00 EMaxC= 1.00D-01 BMatC= 4.86D-13 BMatP= 2.42D-12
 IDIUse=1 WtCom= 1.00D+00 WtEn= 0.00D+00
 Coeff-Com: -0.882D-08 0.603D-07 0.202D-07 0.645D-06 0.370D-06-0.893D-06
 Coeff-Com: -0.124D-04-0.470D-04-0.257D-04 0.378D-03 0.297D-03-0.810D-03
 Coeff-Com: -0.439D-02 0.285D-02 0.131D-01 0.739D-02-0.248D-01-0.135D+00
 Coeff-Com:  0.164D+00 0.978D+00
 Coeff:     -0.882D-08 0.603D-07 0.202D-07 0.645D-06 0.370D-06-0.893D-06
 Coeff:     -0.124D-04-0.470D-04-0.257D-04 0.378D-03 0.297D-03-0.810D-03
 Coeff:     -0.439D-02 0.285D-02 0.131D-01 0.739D-02-0.248D-01-0.135D+00
 Coeff:      0.164D+00 0.978D+00
 Gap=     0.193 Goal=   None    Shift=    0.000
 RMSDP=1.77D-08 MaxDP=6.22D-07 DE=-1.31D-10 OVMax= 2.01D-06

 Cycle  22  Pass 1  IDiag  1:
 RMSU=  1.77D-08    CP:  1.00D+00
 E= -1289.42962377323     Delta-E=       -0.000000000016 Rises=F Damp=F
 DIIS: error= 2.52D-08 at cycle  22 NSaved=  20.
 NSaved=20 IEnMin=20 EnMin= -1289.42962377323     IErMin=20 ErrMin= 2.52D-08
 ErrMax= 2.52D-08  0.00D+00 EMaxC= 1.00D-01 BMatC= 1.14D-13 BMatP= 4.86D-13
 IDIUse=1 WtCom= 1.00D+00 WtEn= 0.00D+00
 Coeff-Com:  0.447D-07 0.753D-08-0.407D-07 0.130D-06 0.275D-05-0.159D-05
 Coeff-Com:  0.352D-05-0.473D-04 0.288D-04 0.204D-03 0.267D-03-0.881D-03
 Coeff-Com: -0.163D-02-0.145D-02 0.991D-02 0.237D-01-0.921D-01-0.128D+00
 Coeff-Com:  0.366D+00 0.824D+00
 Coeff:      0.447D-07 0.753D-08-0.407D-07 0.130D-06 0.275D-05-0.159D-05
 Coeff:      0.352D-05-0.473D-04 0.288D-04 0.204D-03 0.267D-03-0.881D-03
 Coeff:     -0.163D-02-0.145D-02 0.991D-02 0.237D-01-0.921D-01-0.128D+00
 Coeff:      0.366D+00 0.824D+00
 Gap=     0.193 Goal=   None    Shift=    0.000
 RMSDP=7.96D-09 MaxDP=2.85D-07 DE=-1.64D-11 OVMax= 8.63D-07

 SCF Done:  E(RwB97XD) =  -1289.42962377     A.U. after   22 cycles
            NFock= 22  Conv=0.80D-08     -V/T= 3.2989
 KE= 5.608982562893D+02 PE=-6.562389123221D+03 EE= 2.832068986800D+03
 Leave Link  502 at Wed Feb 26 00:58:20 2025, MaxMem=  1048576000 cpu:             687.7 elap:             173.8
 (Enter /nvme/h/buildsets/eb_nepheli/software/Gaussian/16.C.01-AVX2/g16/l508.exe)
 QCSCF skips out because SCF is already converged.
 Leave Link  508 at Wed Feb 26 00:58:20 2025, MaxMem=  1048576000 cpu:               0.0 elap:               0.0
 (Enter /nvme/h/buildsets/eb_nepheli/software/Gaussian/16.C.01-AVX2/g16/l601.exe)
 Copying SCF densities to generalized density rwf, IOpCl= 0 IROHF=0.

 **********************************************************************

            Population analysis using the SCF Density.

 **********************************************************************

 Orbital symmetries:
       Occupied  (A) (A) (A) (A) (A) (A) (A) (A) (A) (A) (A) (A)
                 (A) (A) (A) (A) (A) (A) (A) (A) (A) (A) (A) (A)
                 (A) (A) (A) (A) (A) (A) (A) (A) (A) (A) (A) (A)
                 (A) (A) (A) (A) (A) (A) (A) (A) (A) (A) (A) (A)
                 (A) (A) (A) (A) (A) (A) (A) (A) (A) (A) (A) (A)
                 (A) (A) (A) (A) (A) (A) (A) (A) (A) (A) (A) (A)
                 (A) (A) (A) (A) (A) (A) (A) (A) (A) (A) (A)
       Virtual   (A) (A) (A) (A) (A) (A) (A) (A) (A) (A) (A) (A)
                 (A) (A) (A) (A) (A) (A) (A) (A) (A) (A) (A) (A)
                 (A) (A) (A) (A) (A) (A) (A) (A) (A) (A) (A) (A)
                 (A) (A) (A) (A) (A) (A) (A) (A) (A) (A) (A) (A)
                 (A) (A) (A) (A) (A) (A) (A) (A) (A) (A) (A) (A)
                 (A) (A) (A) (A) (A) (A) (A) (A) (A) (A) (A) (A)
                 (A) (A) (A) (A) (A) (A) (A) (A) (A) (A) (A) (A)
                 (A) (A) (A) (A) (A) (A) (A) (A) (A) (A) (A) (A)
                 (A) (A) (A) (A) (A) (A) (A) (A) (A) (A) (A) (A)
                 (A) (A) (A) (A) (A) (A) (A) (A) (A) (A) (A) (A)
                 (A) (A) (A) (A) (A) (A) (A) (A) (A) (A) (A) (A)
                 (A) (A) (A) (A) (A) (A) (A) (A) (A) (A) (A) (A)
                 (A) (A) (A) (A) (A) (A) (A) (A) (A) (A) (A) (A)
                 (A) (A) (A) (A) (A) (A) (A) (A) (A) (A) (A) (A)
                 (A) (A) (A) (A) (A) (A) (A) (A) (A) (A) (A) (A)
                 (A) (A) (A) (A) (A) (A) (A) (A) (A) (A) (A) (A)
                 (A)
 The electronic state is 1-A.
 Alpha  occ. eigenvalues --  -19.41341 -10.47386  -3.86457  -3.83734  -3.83576
 Alpha  occ. eigenvalues --   -3.83567  -3.83377  -3.83195  -3.83193  -3.83084
 Alpha  occ. eigenvalues --   -2.44772  -2.44436  -2.44423  -2.42041  -2.41909
 Alpha  occ. eigenvalues --   -2.41880  -2.41870  -2.41845  -2.41773  -2.41732
 Alpha  occ. eigenvalues --   -2.41703  -2.41650  -2.41553  -2.41494  -2.41463
 Alpha  occ. eigenvalues --   -2.41408  -2.41397  -2.41366  -2.41309  -2.41268
 Alpha  occ. eigenvalues --   -2.41255  -2.41249  -2.41117  -2.41095  -1.30227
 Alpha  occ. eigenvalues --   -0.70708  -0.61230  -0.61212  -0.57888  -0.45879
 Alpha  occ. eigenvalues --   -0.45427  -0.45413  -0.45147  -0.44548  -0.44455
 Alpha  occ. eigenvalues --   -0.44370  -0.44301  -0.44199  -0.44106  -0.43807
 Alpha  occ. eigenvalues --   -0.43574  -0.43393  -0.42637  -0.42478  -0.42285
 Alpha  occ. eigenvalues --   -0.42233  -0.41640  -0.41505  -0.41022  -0.40591
 Alpha  occ. eigenvalues --   -0.40305  -0.40137  -0.40006  -0.39915  -0.39907
 Alpha  occ. eigenvalues --   -0.39842  -0.39440  -0.39150  -0.38855  -0.38600
 Alpha  occ. eigenvalues --   -0.38454  -0.38336  -0.38244  -0.38104  -0.37901
 Alpha  occ. eigenvalues --   -0.37879  -0.37731  -0.37581  -0.37441  -0.37199
 Alpha  occ. eigenvalues --   -0.26051  -0.23361  -0.23134
 Alpha virt. eigenvalues --   -0.03811  -0.03730  -0.01763  -0.01006  -0.00344
 Alpha virt. eigenvalues --   -0.00107   0.01771   0.01845   0.05235   0.06457
 Alpha virt. eigenvalues --    0.07061   0.08316   0.08860   0.08938   0.09984
 Alpha virt. eigenvalues --    0.10047   0.11688   0.12355   0.12703   0.14123
 Alpha virt. eigenvalues --    0.14451   0.15055   0.15612   0.15702   0.16374
 Alpha virt. eigenvalues --    0.16830   0.17542   0.18150   0.19122   0.19895
 Alpha virt. eigenvalues --    0.24290   0.25698   0.26634   0.26990   0.28407
 Alpha virt. eigenvalues --    0.28588   0.28880   0.29799   0.30021   0.30469
 Alpha virt. eigenvalues --    0.32009   0.32205   0.32748   0.33806   0.34118
 Alpha virt. eigenvalues --    0.34272   0.35186   0.36094   0.40643   0.41453
 Alpha virt. eigenvalues --    0.43382   0.43859   0.44967   0.45852   0.46175
 Alpha virt. eigenvalues --    0.48060   0.48354   0.49933   0.52083   0.53015
 Alpha virt. eigenvalues --    0.53609   0.54963   0.55783   0.57276   0.57928
 Alpha virt. eigenvalues --    0.58864   0.60197   0.62342   0.62519   0.64098
 Alpha virt. eigenvalues --    0.64338   0.67172   0.69128   0.69492   0.70270
 Alpha virt. eigenvalues --    0.71585   0.71640   0.72576   0.73192   0.73438
 Alpha virt. eigenvalues --    0.74920   0.75545   0.75663   0.76802   0.76877
 Alpha virt. eigenvalues --    0.78505   0.79440   0.79998   0.80761   0.81979
 Alpha virt. eigenvalues --    0.82191   0.83257   0.83514   0.85696   0.87703
 Alpha virt. eigenvalues --    0.88289   0.89781   0.91115   0.91397   0.91545
 Alpha virt. eigenvalues --    0.93116   0.93988   0.94762   0.98863   1.01436
 Alpha virt. eigenvalues --    1.02211   1.07241   1.10095   1.10867   1.11447
 Alpha virt. eigenvalues --    1.56415   1.63841   1.63941   1.74020   1.74549
 Alpha virt. eigenvalues --    2.17206   2.30699   2.30779   2.31078   2.36899
 Alpha virt. eigenvalues --    2.37542   2.39957   2.42400   2.53453   2.63878
 Alpha virt. eigenvalues --    2.63882   2.66271   2.66313   2.66393   2.66705
 Alpha virt. eigenvalues --    2.67074   2.68114   2.68469   2.68536   2.68546
 Alpha virt. eigenvalues --    2.68583   2.68604   2.68629   2.68644   2.68720
 Alpha virt. eigenvalues --    2.68744   2.68772   2.68777   2.68847   2.68867
 Alpha virt. eigenvalues --    2.68926   2.68994   2.69026   2.69094   2.69162
 Alpha virt. eigenvalues --    2.69168   2.69312   2.69350   2.69358   2.69427
 Alpha virt. eigenvalues --    2.69464   2.69505   2.69551   2.69579   2.69582
 Alpha virt. eigenvalues --    2.69750   2.69764   2.69850   2.70122   2.70138
 Alpha virt. eigenvalues --    2.70203   2.70581   2.70718   2.70744   2.71092
 Alpha virt. eigenvalues --    2.71159   2.71218   2.71442   2.71603   2.71807
 Alpha virt. eigenvalues --    2.71830   2.72275   2.73259   2.73562   2.73942
 Alpha virt. eigenvalues --    2.74009   2.84181   3.21623   3.21787   3.69270
 Alpha virt. eigenvalues --   54.33610  54.42535  54.43175  54.44430  54.48699
 Alpha virt. eigenvalues --   54.49385  54.52270  54.54901
          Condensed to atoms (all electrons):
               1          2          3          4          5          6
     1  Ag  18.679777   0.076796   0.167786  -0.022706   0.096212  -0.033798
     2  Ag   0.076796  18.647028   0.100900   0.100145   0.017620   0.075417
     3  Ag   0.167786   0.100900  18.469720   0.019086   0.112503  -0.022882
     4  Ag  -0.022706   0.100145   0.019086  18.470978   0.112295   0.168883
     5  Ag   0.096212   0.017620   0.112503   0.112295  18.506565   0.095026
     6  Ag  -0.033798   0.075417  -0.022882   0.168883   0.095026  18.679168
     7  Ag   0.053685   0.190178   0.009656   0.009330  -0.022874   0.057468
     8  Ag   0.132564  -0.041878   0.016662   0.016941   0.139362   0.132780
     9  C   -0.004506  -0.004563  -0.000066  -0.000059   0.000096  -0.005004
    10  O   -0.000118  -0.000251  -0.000002  -0.000003   0.000009  -0.000241
               7          8          9         10
     1  Ag   0.053685   0.132564  -0.004506  -0.000118
     2  Ag   0.190178  -0.041878  -0.004563  -0.000251
     3  Ag   0.009656   0.016662  -0.000066  -0.000002
     4  Ag   0.009330   0.016941  -0.000059  -0.000003
     5  Ag  -0.022874   0.139362   0.000096   0.000009
     6  Ag   0.057468   0.132780  -0.005004  -0.000241
     7  Ag  18.571161  -0.017494   0.094359   0.005034
     8  Ag  -0.017494  18.560657  -0.000854  -0.000465
     9  C    0.094359  -0.000854   5.077345   0.710091
    10  O    0.005034  -0.000465   0.710091   7.271359
 Mulliken charges:
               1
     1  Ag  -0.145692
     2  Ag  -0.161394
     3  Ag   0.126638
     4  Ag   0.125108
     5  Ag  -0.056813
     6  Ag  -0.146816
     7  Ag   0.049497
     8  Ag   0.061725
     9  C    0.133160
    10  O    0.014587
 Sum of Mulliken charges =  -0.00000
 Mulliken charges with hydrogens summed into heavy atoms:
               1
     1  Ag  -0.145692
     2  Ag  -0.161394
     3  Ag   0.126638
     4  Ag   0.125108
     5  Ag  -0.056813
     6  Ag  -0.146816
     7  Ag   0.049497
     8  Ag   0.061725
     9  C    0.133160
    10  O    0.014587
 Electronic spatial extent (au):  <R**2>=           4725.6318
 Charge=             -0.0000 electrons
 Dipole moment (field-independent basis, Debye):
    X=             -2.6006    Y=             -0.5442    Z=             -0.0080  Tot=              2.6569
 Quadrupole moment (field-independent basis, Debye-Ang):
   XX=           -146.9122   YY=           -168.7551   ZZ=           -171.5114
   XY=             -1.8966   XZ=              0.0984   YZ=              0.0194
 Traceless Quadrupole moment (field-independent basis, Debye-Ang):
   XX=             15.4807   YY=             -6.3622   ZZ=             -9.1185
   XY=             -1.8966   XZ=              0.0984   YZ=              0.0194
 Octapole moment (field-independent basis, Debye-Ang**2):
  XXX=             20.6768  YYY=             17.4912  ZZZ=             -0.0887  XYY=             17.0816
  XXY=            -10.0511  XXZ=             -0.6794  XZZ=             24.2603  YZZ=              3.3446
  YYZ=             -0.0020  XYZ=             -0.1936
 Hexadecapole moment (field-independent basis, Debye-Ang**3):
 XXXX=          -3884.8728 YYYY=          -1745.2544 ZZZZ=          -1548.4126 XXXY=            -78.3917
 XXXZ=              4.6083 YYYX=            -98.2624 YYYZ=              1.2073 ZZZX=              0.5140
 ZZZY=             -0.9631 XXYY=           -946.3655 XXZZ=           -913.0929 YYZZ=           -574.5190
 XXYZ=              1.0754 YYXZ=              0.8754 ZZXY=            -41.3090
 N-N= 1.879992256359D+03 E-N=-6.562389118035D+03  KE= 5.608982562893D+02
 No NMR shielding tensors so no spin-rotation constants.
 Leave Link  601 at Wed Feb 26 00:58:21 2025, MaxMem=  1048576000 cpu:               0.6 elap:               0.2
 (Enter /nvme/h/buildsets/eb_nepheli/software/Gaussian/16.C.01-AVX2/g16/l701.exe)
 ... and contract with generalized density number  0.
 Compute integral first derivatives.
 R6Disp: Adding Grimme-D2 dispersion energy 1st derivatives to the gradient.
   1 Symmetry operations used in ECPInt.
 ECPInt:  NShTT=    5050 NPrTT=   15722 LenC2=    4822 LenP2D=   12521.
 LDataN:  DoStor=T MaxTD1= 8 Len=  415
 Leave Link  701 at Wed Feb 26 00:58:26 2025, MaxMem=  1048576000 cpu:              19.3 elap:               4.9
 (Enter /nvme/h/buildsets/eb_nepheli/software/Gaussian/16.C.01-AVX2/g16/l702.exe)
 L702 exits ... SP integral derivatives will be done elsewhere.
 Leave Link  702 at Wed Feb 26 00:58:26 2025, MaxMem=  1048576000 cpu:               0.0 elap:               0.0
 (Enter /nvme/h/buildsets/eb_nepheli/software/Gaussian/16.C.01-AVX2/g16/l703.exe)
 Integral derivatives from FoFJK, PRISM(SPDF).
 Compute integral first derivatives, UseDBF=F ICtDFT=           0.
 Calling FoFJK, ICntrl=      2127 FMM=F ISym2X=0 I1Cent= 0 IOpClX= 0 NMat=1 NMatS=1 NMatT=0.
 FoFJK:  IHMeth= 1 ICntrl=    2127 DoSepK=T KAlg= 0 I1Cent=           0 FoldK=F
 IRaf=         1 NMat=       1 IRICut=       1 DoRegI=T DoRafI=F ISym2E= 0 IDoP0=0 IntGTp=1.
 FoFCou: FMM=F IPFlag=           0 FMFlag=      100000 FMFlg1=         800
         NFxFlg=           0 DoJE=F BraDBF=F KetDBF=F FulRan=T
         wScrn=  0.000000 ICntrl=      2527 IOpCl=  0 I1Cent=           0 NGrid=           0
         NMat0=    1 NMatS0=      1 NMatT0=    0 NMatD0=    1 NMtDS0=    0 NMtDT0=    0
 Symmetry not used in FoFCou.
 Defaulting to unpruned grid for atomic number  47.
 Defaulting to unpruned grid for atomic number  47.
 Defaulting to unpruned grid for atomic number  47.
 Defaulting to unpruned grid for atomic number  47.
 Leave Link  703 at Wed Feb 26 00:59:07 2025, MaxMem=  1048576000 cpu:             162.6 elap:              41.1
 (Enter /nvme/h/buildsets/eb_nepheli/software/Gaussian/16.C.01-AVX2/g16/l716.exe)
 Dipole        =-1.02314626D+00-2.14086816D-01-3.13238705D-03
 ***** Axes restored to original set *****
 -------------------------------------------------------------------
 Center     Atomic                   Forces (Hartrees/Bohr)
 Number     Number              X              Y              Z
 -------------------------------------------------------------------
      1       47           0.000001592   -0.000003693    0.000009500
      2       47           0.000018913    0.000023682   -0.000024257
      3       47          -0.000012009   -0.000007391    0.000007674
      4       47          -0.000016880    0.000013806   -0.000010015
      5       47           0.000009024    0.000015655   -0.000027548
      6       47           0.000007874   -0.000024109    0.000002945
      7       47          -0.000004318    0.000000910    0.000023858
      8       47           0.000007606   -0.000012378   -0.000003740
      9        6           0.000037346    0.000048978    0.000018251
     10        8          -0.000049150   -0.000055461    0.000003335
 -------------------------------------------------------------------
 Cartesian Forces:  Max     0.000055461 RMS     0.000022081
 Z-matrix is all fixed cartesians, so copy forces.
 Force constants in Cartesian coordinates: 
                1             2             3             4             5 
      1  0.211152D+00
      2 -0.122561D-02  0.228396D+00
      3  0.136526D-01  0.488872D-01  0.230808D+00
      4 -0.225225D-01 -0.218474D-03 -0.629991D-02  0.210866D+00
      5 -0.328077D-02 -0.348789D-01 -0.190812D-01  0.846258D-02  0.223952D+00
      6 -0.233163D-02  0.178130D-01 -0.783095D-01 -0.988736D-03 -0.549048D-01
      7 -0.759071D-01  0.193519D-01 -0.409611D-02 -0.512933D-01  0.167058D-01
      8 -0.175906D-01 -0.320583D-01 -0.163105D-01 -0.129044D-01 -0.243736D-01
      9 -0.384309D-01 -0.134620D-02 -0.396877D-01  0.372564D-01 -0.505317D-02
     10  0.220773D-02 -0.582286D-02 -0.930591D-02 -0.391280D-01 -0.163434D-01
     11 -0.137410D-02  0.303361D-02 -0.744349D-02 -0.331660D-01 -0.526963D-01
     12 -0.506381D-02 -0.924345D-02 -0.676106D-03  0.958893D-02  0.192533D-01
     13 -0.318730D-01 -0.151696D-01  0.114965D-01  0.437390D-02 -0.684023D-02
     14 -0.260797D-01 -0.571114D-01  0.938964D-02 -0.473092D-02 -0.340214D-02
     15 -0.623239D-02 -0.194317D-01 -0.329655D-01  0.424595D-02  0.131323D-01
     16  0.593397D-02  0.448389D-02  0.359206D-02 -0.278981D-01  0.975734D-02
     17  0.226025D-02 -0.724614D-02 -0.152657D-01  0.205550D-01 -0.727247D-01
     18  0.152797D-02 -0.146074D-01 -0.306860D-02 -0.423514D-02  0.246788D-01
     19 -0.568374D-01 -0.120822D-01  0.477826D-02 -0.774665D-01 -0.116468D-01
     20  0.146369D-01 -0.357635D-01 -0.245646D-01  0.186847D-01 -0.483291D-01
     21  0.272865D-01 -0.857516D-02 -0.560099D-01 -0.319336D-01  0.144014D-01
     22 -0.315723D-01  0.113607D-01 -0.132477D-01  0.357574D-02  0.483731D-02
     23  0.293655D-01 -0.680788D-01  0.211302D-01  0.763795D-03  0.377605D-02
     24  0.299903D-02 -0.170219D-01 -0.277973D-01 -0.295694D-02  0.109827D-01
     25 -0.655365D-03 -0.292404D-03 -0.783587D-03 -0.424064D-03 -0.210242D-02
     26  0.368569D-02  0.162889D-02  0.441147D-02  0.210745D-02  0.111070D-01
     27  0.678729D-02  0.250763D-02  0.827157D-02 -0.489549D-02 -0.221932D-02
     28  0.737233D-04 -0.385418D-03  0.213763D-03 -0.827370D-04  0.450601D-03
     29 -0.397620D-03  0.207871D-02 -0.115291D-02  0.446234D-03 -0.243027D-02
     30 -0.194717D-03  0.101796D-02 -0.564588D-03  0.218524D-03 -0.119012D-02
                6             7             8             9            10 
      6  0.238176D+00
      7  0.103454D-01  0.194304D+00
      8  0.167320D-01 -0.445079D-01  0.151459D+00
      9 -0.428498D-01 -0.447259D-02  0.162131D-01  0.121652D+00
     10 -0.170489D-01 -0.242745D-01  0.237586D-01  0.164757D-01  0.169266D+00
     11 -0.137342D-01 -0.791877D-02 -0.407952D-01 -0.357021D-01  0.175449D-01
     12 -0.270537D-01 -0.140541D-01 -0.213194D-01 -0.341087D-01  0.426511D-01
     13  0.667787D-02 -0.357686D-01  0.342472D-01 -0.128514D-01 -0.289717D-01
     14  0.136383D-01 -0.176482D-02 -0.676163D-01  0.284337D-01 -0.974728D-02
     15 -0.470692D-02  0.876185D-02  0.785694D-02 -0.276374D-01  0.628422D-02
     16  0.772634D-02 -0.298919D-02  0.683157D-02  0.659992D-03 -0.806957D-01
     17 -0.889764D-02  0.112823D-01  0.109942D-02 -0.417519D-02 -0.549815D-02
     18 -0.349671D-01  0.489355D-02 -0.597631D-02  0.645842D-02 -0.298544D-01
     19  0.281112D-02 -0.449625D-02  0.276945D-02  0.196867D-02 -0.218350D-02
     20  0.214573D-01 -0.978454D-03  0.392186D-02  0.269304D-03 -0.498377D-02
     21 -0.581005D-01  0.201146D-02 -0.256586D-03  0.125918D-01  0.178800D-04
     22 -0.763403D-02  0.430272D-03  0.745470D-02 -0.607162D-03  0.377154D-02
     23  0.998258D-02  0.780193D-02  0.805011D-02  0.136657D-02  0.113848D-02
     24 -0.107758D-02 -0.339877D-02  0.301236D-02  0.354205D-02 -0.913080D-02
     25  0.779057D-04 -0.520544D-05 -0.586646D-04  0.135014D-05  0.825127D-05
     26 -0.119717D-03  0.279422D-04  0.313219D-03 -0.600936D-05 -0.465039D-04
     27  0.985258D-02  0.930256D-05  0.483820D-04  0.390325D-04 -0.887956D-04
     28  0.364695D-03  0.000000D+00  0.000000D+00  0.000000D+00  0.000000D+00
     29 -0.196695D-02  0.000000D+00  0.000000D+00  0.000000D+00  0.000000D+00
     30 -0.963225D-03  0.000000D+00  0.000000D+00  0.000000D+00  0.000000D+00
               11            12            13            14            15 
     11  0.133857D+00
     12  0.332179D-01  0.164306D+00
     13  0.113075D-02 -0.261520D-01  0.225472D+00
     14 -0.244646D-01 -0.777206D-02  0.238779D-01  0.212334D+00
     15  0.240266D-01 -0.771167D-01 -0.138552D-01 -0.455792D-01  0.216811D+00
     16  0.306306D-01  0.540309D-02 -0.418410D-01  0.133162D-01  0.258509D-01
     17 -0.339935D-01 -0.132263D-01 -0.113748D-01 -0.344135D-01  0.102433D-01
     18  0.162111D-02 -0.330818D-01  0.240027D-01 -0.152654D-01 -0.457006D-01
     19 -0.566608D-02 -0.349659D-02 -0.584995D-02 -0.876340D-02  0.614559D-02
     20  0.106035D-01 -0.294359D-02 -0.477625D-02  0.511585D-02  0.511500D-02
     21 -0.165466D-02  0.361413D-02  0.156147D-02  0.414657D-02  0.611956D-02
     22 -0.117281D-02 -0.886055D-02 -0.855626D-01  0.139193D-01 -0.312158D-01
     23  0.440994D-02  0.193974D-02 -0.209887D-01 -0.305855D-01  0.470974D-02
     24 -0.346301D-03  0.384007D-02  0.902050D-02  0.130582D-01 -0.349903D-01
     25 -0.854560D-05 -0.160987D-04  0.205760D-04 -0.272269D-04  0.147976D-04
     26  0.458674D-04  0.938137D-04 -0.106377D-03  0.143212D-03 -0.730546D-04
     27  0.151226D-04  0.276414D-03  0.995688D-04 -0.497522D-04  0.187043D-03
     28  0.000000D+00  0.000000D+00  0.000000D+00  0.000000D+00  0.000000D+00
     29  0.000000D+00  0.000000D+00  0.000000D+00  0.000000D+00  0.000000D+00
     30  0.000000D+00  0.000000D+00  0.000000D+00  0.000000D+00  0.000000D+00
               16            17            18            19            20 
     16  0.221761D+00
     17 -0.284234D-01  0.233860D+00
     18 -0.716744D-02  0.417038D-01  0.213942D+00
     19 -0.497013D-01  0.382813D-02  0.963711D-02  0.336848D+00
     20 -0.251645D-01 -0.661968D-01 -0.797783D-02  0.206900D-01  0.256566D+00
     21 -0.970809D-02 -0.233512D-01 -0.316249D-01 -0.420130D-02 -0.618642D-03
     22 -0.262571D-01  0.859617D-02  0.137035D-02 -0.332892D-01 -0.158986D-01
     23 -0.236603D-02 -0.269473D-01 -0.251868D-01  0.705016D-02 -0.310607D-01
     24 -0.230622D-01  0.113022D-01 -0.746950D-01 -0.135228D-01  0.199868D-01
     25  0.171676D-02 -0.136999D-02  0.228405D-03 -0.109794D+00  0.125479D-01
     26 -0.922447D-02  0.734200D-02 -0.116389D-02  0.172431D-01 -0.166873D+00
     27 -0.337251D-02  0.204831D-02  0.167285D-02 -0.153119D-03 -0.329647D-01
     28 -0.294507D-04  0.144475D-03 -0.403076D-03  0.276983D-02 -0.147581D-01
     29  0.158840D-03 -0.779214D-03  0.217395D-02 -0.134224D-01  0.720164D-01
     30  0.777847D-04 -0.381586D-03  0.106460D-02 -0.396694D-02  0.222409D-01
               21            22            23            24            25 
     21  0.239140D+00
     22  0.130153D-01  0.167618D+00
     23  0.254643D-01 -0.224874D-01  0.138967D+00
     24 -0.365330D-01  0.396968D-01 -0.391889D-01  0.164285D+00
     25  0.321470D-02  0.124317D-02 -0.455406D-04  0.560080D-03  0.154959D+01
     26 -0.324276D-01 -0.637996D-02  0.217213D-03 -0.289037D-02  0.290330D+00
     27 -0.117983D+00  0.759511D-02 -0.830653D-03  0.288503D-02 -0.164320D+00
     28 -0.126434D-02  0.425344D-04 -0.232170D-03 -0.204916D-03 -0.144170D+01
     29  0.228716D-01 -0.229405D-03  0.125219D-02  0.110519D-02 -0.298974D+00
     30  0.387865D-01 -0.112341D-03  0.613204D-03  0.541220D-03  0.161023D+00
               26            27            28            29            30 
     26  0.440876D+00
     27  0.626024D-01  0.226325D+00
     28 -0.297637D+00  0.158339D+00  0.143893D+01
     29 -0.294801D+00 -0.311574D-01  0.312418D+00  0.222663D+00
     30 -0.304270D-01 -0.131526D+00 -0.157045D+00  0.812659D-02  0.926616D-01
 Leave Link  716 at Wed Feb 26 00:59:07 2025, MaxMem=  1048576000 cpu:               0.1 elap:               0.0
 (Enter /nvme/h/buildsets/eb_nepheli/software/Gaussian/16.C.01-AVX2/g16/l103.exe)

 GradGradGradGradGradGradGradGradGradGradGradGradGradGradGradGradGradGrad
 Berny optimization.
 Search for a local minimum.
 Step number   1 out of a maximum of    2
 All quantities printed in internal units (Hartrees-Bohrs-Radians)
 Second derivative matrix not updated -- first step.
 ITU=  0
     Eigenvalues ---    0.02307   0.02453   0.04366   0.11453   0.13571
     Eigenvalues ---    0.15957   0.17068   0.20516   0.21288   0.21361
     Eigenvalues ---    0.21611   0.23134   0.23558   0.26079   0.28290
     Eigenvalues ---    0.32853   0.33480   0.34069   0.35205   0.35476
     Eigenvalues ---    0.39541   0.42021   0.67342   3.11457
 Angle between quadratic step and forces=  63.18 degrees.
 Linear search not attempted -- first point.
 B after Tr=     0.000002    0.000008    0.000000
         Rot=    1.000000    0.000000    0.000000    0.000003 Ang=   0.00 deg.
 Variable       Old X    -DE/DX   Delta X   Delta X   Delta X     New X
                                 (Linear)    (Quad)   (Total)
    X1       -0.16734   0.00000   0.00000  -0.00004  -0.00004  -0.16738
    Y1        0.03666  -0.00000   0.00000   0.00007   0.00008   0.03674
    Z1        0.33636   0.00001   0.00000   0.00001   0.00001   0.33637
    X2        0.27005   0.00002   0.00000  -0.00000  -0.00000   0.27004
    Y2        0.13041   0.00002   0.00000   0.00009   0.00010   0.13051
    Z2        5.67488  -0.00002   0.00000  -0.00008  -0.00008   5.67480
    X3        4.65855  -0.00001   0.00000  -0.00011  -0.00010   4.65845
    Y3        0.16605  -0.00001   0.00000  -0.00013  -0.00014   0.16591
    Z3        2.40451   0.00001   0.00000   0.00005   0.00005   2.40456
    X4        3.79442  -0.00002   0.00000  -0.00002  -0.00000   3.79441
    Y4        4.30027   0.00001   0.00000   0.00000  -0.00000   4.30026
    Z4        5.99737  -0.00001   0.00000  -0.00003  -0.00003   5.99733
    X5        2.56374   0.00001   0.00000   0.00015   0.00018   2.56392
    Y5        4.80805   0.00002   0.00000   0.00001   0.00000   4.80806
    Z5        0.83142  -0.00003   0.00000  -0.00007  -0.00007   0.83135
    X6       -1.24104   0.00001   0.00000   0.00010   0.00012  -1.24091
    Y6        5.19921  -0.00002   0.00000   0.00001   0.00002   5.19923
    Z6        4.81113   0.00000   0.00000   0.00001   0.00001   4.81114
    X7       -4.42419  -0.00000   0.00000  -0.00006  -0.00006  -4.42425
    Y7        0.99806   0.00000   0.00000   0.00018   0.00021   0.99827
    Z7        3.53788   0.00002   0.00000   0.00010   0.00010   3.53798
    X8       -2.51729   0.00001   0.00000   0.00016   0.00019  -2.51710
    Y8        4.80961  -0.00001   0.00000   0.00011   0.00013   4.80974
    Z8       -0.38480  -0.00000   0.00000  -0.00002  -0.00003  -0.38483
    X9       -8.54302   0.00004   0.00000  -0.00016  -0.00016  -8.54317
    Y9        0.22305   0.00005   0.00000  -0.00008  -0.00003   0.22302
    Z9        3.56103   0.00002   0.00000   0.00006   0.00005   3.56108
   X10      -10.60132  -0.00005   0.00000  -0.00012  -0.00012 -10.60144
   Y10       -0.26734  -0.00006   0.00000  -0.00044  -0.00038  -0.26772
   Z10        3.78311   0.00000   0.00000  -0.00000  -0.00001   3.78310
         Item               Value     Threshold  Converged?
 Maximum Force            0.000055     0.000450     YES
 RMS     Force            0.000022     0.000300     YES
 Maximum Displacement     0.000378     0.001800     YES
 RMS     Displacement     0.000117     0.001200     YES
 Predicted change in Energy=-1.656358D-08
 Optimization completed.
    -- Stationary point found.
 GradGradGradGradGradGradGradGradGradGradGradGradGradGradGradGradGradGrad

 Leave Link  103 at Wed Feb 26 00:59:08 2025, MaxMem=  1048576000 cpu:               0.2 elap:               0.1
 (Enter /nvme/h/buildsets/eb_nepheli/software/Gaussian/16.C.01-AVX2/g16/l9999.exe)
 Unable to Open any file for archive entry.
 1\1\GINC-NE08\Force\RwB97XD\def2SVP\C1Ag8O1\NPATSALIDIS\26-Feb-2025\0\
 \#p wb97xd/def2SVP scf(xqc) scfcyc=999 force\\Template file\\0,1\Ag,-0
 .088551,0.019402,0.177992\Ag,0.142903,0.06901,3.003017\Ag,2.465199,0.0
 87869,1.272414\Ag,2.007918,2.275603,3.173671\Ag,1.356673,2.544312,0.43
 9967\Ag,-0.656728,2.751302,2.54594\Ag,-2.341179,0.528152,1.872166\Ag,-
 1.332091,2.545136,-0.20363\C,-4.52077,0.118031,1.884417\O,-5.609977,-0
 .141469,2.001933\\Version=ES64L-G16RevC.01\State=1-A\HF=-1289.4296238\
 RMSD=7.961e-09\RMSF=2.208e-05\Dipole=-1.0126664,-0.2527723,0.0573084\Q
 uadrupole=11.0596406,-5.8780412,-5.1815993,1.1408997,2.9390551,-0.7729
 947\PG=C01 [X(C1Ag8O1)]\\@
 The archive entry for this job was punched.


 LOVE IS BLIND, THAT'S WHY ALL THE WORLD LOVES A LOUVER.
 Job cpu time:       0 days  0 hours 14 minutes 43.3 seconds.
 Elapsed time:       0 days  0 hours  3 minutes 43.3 seconds.
 File lengths (MBytes):  RWF=     51 Int=      0 D2E=      0 Chk=      6 Scr=      1
 Normal termination of Gaussian 16 at Wed Feb 26 00:59:08 2025.
