# generated from FF_develop kind of dataframes
# created within AL scheme step by Nikolaos Patsalidis [ EDFT = -99.002308, Upred =-99.371351 ]  
4 atoms

1 atom types

0.00 149.32 xlo xhi
0.00 127.25 ylo yhi
0.00 100.31 zlo zhi



Masses

1 107.868200


Atoms

1  1  1  0.000000   7.4658464999999993e+01   6.2279688000000000e+01   5.0169273999999994e+01   
2  2  1  0.000000   7.2192210000000003e+01   6.3612580000000001e+01   5.0138553999999999e+01   
3  3  1  0.000000   7.4662397999999996e+01   6.5005074000000008e+01   5.0168585000000000e+01   
4  4  1  0.000000   7.7124066999999997e+01   6.3610378000000004e+01   5.0138526999999996e+01   
