# generated from FF_develop kind of dataframes
# created within AL scheme step by Nikolaos Patsalidis [ EDFT = -99.375990, Upred =-99.400009 ]  
4 atoms

1 atom types

0.00 148.81 xlo xhi
0.00 126.88 ylo yhi
0.00 100.34 zlo zhi



Masses

1 107.868200


Atoms

1  1  1  0.000000   7.4391563999999988e+01   6.2118440749999998e+01   5.0148191000000004e+01   
2  2  1  0.000000   7.6846450999999988e+01   6.3404413750000003e+01   5.0176894000000004e+01   
3  3  1  0.000000   7.4409540999999990e+01   6.4806496750000008e+01   5.0181784000000000e+01   
4  4  1  0.000000   7.1965783999999999e+01   6.3431768750000003e+01   5.0164991000000001e+01   
